# vtk DataFile Version 3.0
Output from R2
ASCII
DATASET UNSTRUCTURED_GRID
POINTS      18361 double
    -0.50200     0.06900   0.
    -0.50200    -0.06900   0.
    -0.50200    -0.20900   0.
    -0.50200    -0.35300   0.
    -0.50200    -0.50100   0.
    -0.50200    -0.65400   0.
    -0.50200    -0.81000   0.
    -0.50200    -0.97100   0.
    -0.50200    -1.13600   0.
    -0.50200    -1.30500   0.
    -0.50200    -1.48000   0.
    -0.50200    -1.65900   0.
    -0.50200    -1.84300   0.
    -0.50200    -2.03200   0.
    -0.50200    -2.22700   0.
    -0.50200    -2.42700   0.
    -0.50200    -2.63200   0.
    -0.50200    -2.84300   0.
    -0.50200    -3.06000   0.
    -0.50200    -3.28300   0.
    -0.50200    -3.51200   0.
    -0.50200    -3.74700   0.
    -0.50200    -3.98900   0.
    -0.50200    -4.23800   0.
    -0.50200    -4.49300   0.
    -0.50200    -4.75600   0.
    -0.50200    -5.02600   0.
    -0.50200    -5.30300   0.
    -0.50200    -5.58800   0.
    -0.50200    -5.88000   0.
    -0.50200    -6.18100   0.
    -0.50200    -6.49100   0.
    -0.50200    -6.80800   0.
    -0.50200    -7.13500   0.
    -0.50200    -7.47000   0.
    -0.50200    -7.81500   0.
    -0.50200    -8.17000   0.
    -0.50200    -8.53400   0.
    -0.50200    -8.90800   0.
    -0.50200    -9.29300   0.
    -0.50200    -9.68800   0.
    -0.50200   -10.09400   0.
    -0.50200   -10.51200   0.
    -0.50200   -10.94100   0.
    -0.50200   -11.38100   0.
    -0.50200   -11.83400   0.
    -0.50200   -12.30000   0.
    -0.50200   -12.77800   0.
    -0.50200   -13.27000   0.
    -0.50200   -13.77500   0.
    -0.50200   -14.29500   0.
    -0.50200   -14.82800   0.
    -0.50200   -15.37600   0.
    -0.50200   -15.94000   0.
    -0.50200   -16.51900   0.
    -0.50200   -17.11400   0.
    -0.50200   -17.72600   0.
    -0.50200   -18.35400   0.
    -0.50200   -19.00000   0.
    -0.50200   -19.66400   0.
    -0.50200   -20.33600   0.
     0.50200     0.06900   0.
     0.50200    -0.06900   0.
     0.50200    -0.20900   0.
     0.50200    -0.35300   0.
     0.50200    -0.50100   0.
     0.50200    -0.65400   0.
     0.50200    -0.81000   0.
     0.50200    -0.97100   0.
     0.50200    -1.13600   0.
     0.50200    -1.30500   0.
     0.50200    -1.48000   0.
     0.50200    -1.65900   0.
     0.50200    -1.84300   0.
     0.50200    -2.03200   0.
     0.50200    -2.22700   0.
     0.50200    -2.42700   0.
     0.50200    -2.63200   0.
     0.50200    -2.84300   0.
     0.50200    -3.06000   0.
     0.50200    -3.28300   0.
     0.50200    -3.51200   0.
     0.50200    -3.74700   0.
     0.50200    -3.98900   0.
     0.50200    -4.23800   0.
     0.50200    -4.49300   0.
     0.50200    -4.75600   0.
     0.50200    -5.02600   0.
     0.50200    -5.30300   0.
     0.50200    -5.58800   0.
     0.50200    -5.88000   0.
     0.50200    -6.18100   0.
     0.50200    -6.49100   0.
     0.50200    -6.80800   0.
     0.50200    -7.13500   0.
     0.50200    -7.47000   0.
     0.50200    -7.81500   0.
     0.50200    -8.17000   0.
     0.50200    -8.53400   0.
     0.50200    -8.90800   0.
     0.50200    -9.29300   0.
     0.50200    -9.68800   0.
     0.50200   -10.09400   0.
     0.50200   -10.51200   0.
     0.50200   -10.94100   0.
     0.50200   -11.38100   0.
     0.50200   -11.83400   0.
     0.50200   -12.30000   0.
     0.50200   -12.77800   0.
     0.50200   -13.27000   0.
     0.50200   -13.77500   0.
     0.50200   -14.29500   0.
     0.50200   -14.82800   0.
     0.50200   -15.37600   0.
     0.50200   -15.94000   0.
     0.50200   -16.51900   0.
     0.50200   -17.11400   0.
     0.50200   -17.72600   0.
     0.50200   -18.35400   0.
     0.50200   -19.00000   0.
     0.50200   -19.66400   0.
     0.50200   -20.33600   0.
     1.50500     0.06900   0.
     1.50500    -0.06900   0.
     1.50500    -0.20900   0.
     1.50500    -0.35300   0.
     1.50500    -0.50100   0.
     1.50500    -0.65400   0.
     1.50500    -0.81000   0.
     1.50500    -0.97100   0.
     1.50500    -1.13600   0.
     1.50500    -1.30500   0.
     1.50500    -1.48000   0.
     1.50500    -1.65900   0.
     1.50500    -1.84300   0.
     1.50500    -2.03200   0.
     1.50500    -2.22700   0.
     1.50500    -2.42700   0.
     1.50500    -2.63200   0.
     1.50500    -2.84300   0.
     1.50500    -3.06000   0.
     1.50500    -3.28300   0.
     1.50500    -3.51200   0.
     1.50500    -3.74700   0.
     1.50500    -3.98900   0.
     1.50500    -4.23800   0.
     1.50500    -4.49300   0.
     1.50500    -4.75600   0.
     1.50500    -5.02600   0.
     1.50500    -5.30300   0.
     1.50500    -5.58800   0.
     1.50500    -5.88000   0.
     1.50500    -6.18100   0.
     1.50500    -6.49100   0.
     1.50500    -6.80800   0.
     1.50500    -7.13500   0.
     1.50500    -7.47000   0.
     1.50500    -7.81500   0.
     1.50500    -8.17000   0.
     1.50500    -8.53400   0.
     1.50500    -8.90800   0.
     1.50500    -9.29300   0.
     1.50500    -9.68800   0.
     1.50500   -10.09400   0.
     1.50500   -10.51200   0.
     1.50500   -10.94100   0.
     1.50500   -11.38100   0.
     1.50500   -11.83400   0.
     1.50500   -12.30000   0.
     1.50500   -12.77800   0.
     1.50500   -13.27000   0.
     1.50500   -13.77500   0.
     1.50500   -14.29500   0.
     1.50500   -14.82800   0.
     1.50500   -15.37600   0.
     1.50500   -15.94000   0.
     1.50500   -16.51900   0.
     1.50500   -17.11400   0.
     1.50500   -17.72600   0.
     1.50500   -18.35400   0.
     1.50500   -19.00000   0.
     1.50500   -19.66400   0.
     1.50500   -20.33600   0.
     2.50800     0.06900   0.
     2.50800    -0.06900   0.
     2.50800    -0.20900   0.
     2.50800    -0.35300   0.
     2.50800    -0.50100   0.
     2.50800    -0.65400   0.
     2.50800    -0.81000   0.
     2.50800    -0.97100   0.
     2.50800    -1.13600   0.
     2.50800    -1.30500   0.
     2.50800    -1.48000   0.
     2.50800    -1.65900   0.
     2.50800    -1.84300   0.
     2.50800    -2.03200   0.
     2.50800    -2.22700   0.
     2.50800    -2.42700   0.
     2.50800    -2.63200   0.
     2.50800    -2.84300   0.
     2.50800    -3.06000   0.
     2.50800    -3.28300   0.
     2.50800    -3.51200   0.
     2.50800    -3.74700   0.
     2.50800    -3.98900   0.
     2.50800    -4.23800   0.
     2.50800    -4.49300   0.
     2.50800    -4.75600   0.
     2.50800    -5.02600   0.
     2.50800    -5.30300   0.
     2.50800    -5.58800   0.
     2.50800    -5.88000   0.
     2.50800    -6.18100   0.
     2.50800    -6.49100   0.
     2.50800    -6.80800   0.
     2.50800    -7.13500   0.
     2.50800    -7.47000   0.
     2.50800    -7.81500   0.
     2.50800    -8.17000   0.
     2.50800    -8.53400   0.
     2.50800    -8.90800   0.
     2.50800    -9.29300   0.
     2.50800    -9.68800   0.
     2.50800   -10.09400   0.
     2.50800   -10.51200   0.
     2.50800   -10.94100   0.
     2.50800   -11.38100   0.
     2.50800   -11.83400   0.
     2.50800   -12.30000   0.
     2.50800   -12.77800   0.
     2.50800   -13.27000   0.
     2.50800   -13.77500   0.
     2.50800   -14.29500   0.
     2.50800   -14.82800   0.
     2.50800   -15.37600   0.
     2.50800   -15.94000   0.
     2.50800   -16.51900   0.
     2.50800   -17.11400   0.
     2.50800   -17.72600   0.
     2.50800   -18.35400   0.
     2.50800   -19.00000   0.
     2.50800   -19.66400   0.
     2.50800   -20.33600   0.
     3.51200     0.06900   0.
     3.51200    -0.06900   0.
     3.51200    -0.20900   0.
     3.51200    -0.35300   0.
     3.51200    -0.50100   0.
     3.51200    -0.65400   0.
     3.51200    -0.81000   0.
     3.51200    -0.97100   0.
     3.51200    -1.13600   0.
     3.51200    -1.30500   0.
     3.51200    -1.48000   0.
     3.51200    -1.65900   0.
     3.51200    -1.84300   0.
     3.51200    -2.03200   0.
     3.51200    -2.22700   0.
     3.51200    -2.42700   0.
     3.51200    -2.63200   0.
     3.51200    -2.84300   0.
     3.51200    -3.06000   0.
     3.51200    -3.28300   0.
     3.51200    -3.51200   0.
     3.51200    -3.74700   0.
     3.51200    -3.98900   0.
     3.51200    -4.23800   0.
     3.51200    -4.49300   0.
     3.51200    -4.75600   0.
     3.51200    -5.02600   0.
     3.51200    -5.30300   0.
     3.51200    -5.58800   0.
     3.51200    -5.88000   0.
     3.51200    -6.18100   0.
     3.51200    -6.49100   0.
     3.51200    -6.80800   0.
     3.51200    -7.13500   0.
     3.51200    -7.47000   0.
     3.51200    -7.81500   0.
     3.51200    -8.17000   0.
     3.51200    -8.53400   0.
     3.51200    -8.90800   0.
     3.51200    -9.29300   0.
     3.51200    -9.68800   0.
     3.51200   -10.09400   0.
     3.51200   -10.51200   0.
     3.51200   -10.94100   0.
     3.51200   -11.38100   0.
     3.51200   -11.83400   0.
     3.51200   -12.30000   0.
     3.51200   -12.77800   0.
     3.51200   -13.27000   0.
     3.51200   -13.77500   0.
     3.51200   -14.29500   0.
     3.51200   -14.82800   0.
     3.51200   -15.37600   0.
     3.51200   -15.94000   0.
     3.51200   -16.51900   0.
     3.51200   -17.11400   0.
     3.51200   -17.72600   0.
     3.51200   -18.35400   0.
     3.51200   -19.00000   0.
     3.51200   -19.66400   0.
     3.51200   -20.33600   0.
     4.51500     0.06900   0.
     4.51500    -0.06900   0.
     4.51500    -0.20900   0.
     4.51500    -0.35300   0.
     4.51500    -0.50100   0.
     4.51500    -0.65400   0.
     4.51500    -0.81000   0.
     4.51500    -0.97100   0.
     4.51500    -1.13600   0.
     4.51500    -1.30500   0.
     4.51500    -1.48000   0.
     4.51500    -1.65900   0.
     4.51500    -1.84300   0.
     4.51500    -2.03200   0.
     4.51500    -2.22700   0.
     4.51500    -2.42700   0.
     4.51500    -2.63200   0.
     4.51500    -2.84300   0.
     4.51500    -3.06000   0.
     4.51500    -3.28300   0.
     4.51500    -3.51200   0.
     4.51500    -3.74700   0.
     4.51500    -3.98900   0.
     4.51500    -4.23800   0.
     4.51500    -4.49300   0.
[...]
POINT_DATA     18361
CELL_DATA     18000
SCALARS Resistivity(Ohm-m) double 1
LOOKUP_TABLE default
           145.07331           142.54021           140.90963           140.23282           139.84742           139.31644           138.52525           137.54455           136.49780           135.50316           134.63418           133.92828           133.40084           133.04165           132.83484           132.76584           132.81443           132.96218           133.19515           133.50139           133.87085           134.28986           134.75134           135.25045           135.77930           136.33230           136.90562           137.49498           138.09603           138.70222           139.31168           139.92351           140.53040           141.13058           141.72136           142.29876           142.86416           143.41288           143.94237           144.45341           144.94607           145.41906           145.87298           146.31111           146.73085           147.13060           147.51364           147.87935           148.22725           148.55975           148.87599           149.17623           149.46353           149.73725           149.99717           150.24492           150.48281           150.71172           150.93100           151.14219           145.39487           141.71987           139.71700           139.00957           138.62660           138.02571           137.09127           135.92605           134.68650           133.51585           132.49984           131.67768           131.06561           130.65090           130.41190           130.33158           130.38618           130.55354           130.81850           131.16716           131.58660           132.06357           132.58876           133.15634           133.75818           134.38733           135.03953           135.70994           136.39400           137.08396           137.77659           138.47172           139.16257           139.84436           140.51467           141.17094           141.81252           142.43356           143.03371           143.61269           144.16843           144.70201           145.21434           145.70761           146.17934           146.62833           147.05818           147.46752           147.85658           148.22823           148.58053           148.91419           149.23399           149.53741           149.82476           150.09938           150.36180           150.61403           150.85601           151.08798           144.07922           140.14454           138.27768           137.79189           137.52538           136.89995           135.83672           134.48983           133.05702           131.70860           130.54121           129.59769           128.89494           128.41617           128.13616           128.03423           128.08473           128.26145           128.54804           128.92913           129.38975           129.91568           130.49656           131.12479           131.79277           132.49225           133.21746           133.96415           134.72669           135.49631           136.26841           137.04340           137.81500           138.57618           139.32384           140.05649           140.77256           141.46464           142.13387           142.77912           143.39740           143.99112           144.56124           145.10837           145.63134           146.12950           146.60535           147.05776           147.48799           147.89826           148.28597           148.65360           149.00573           149.33851           149.65301           149.95406           150.24151           150.51653           150.78075           151.03421           144.40289           139.98182           137.91977           137.33960           136.95116           136.14969           134.87764           133.31597           131.68204           130.15807           128.84345           127.77920           126.98126           126.43008           126.09646           125.95844           125.98758           126.15666           126.44810           126.84459           127.32977           127.89074           128.51380           129.19046           129.91329           130.67318           131.46265           132.27700           133.11119           133.95416           134.80015           135.65040           136.49835           137.33474           138.15659           138.96277           139.75034           140.51133           141.24755           141.95723           142.63638           143.28904           143.91556           144.51606           145.08958           145.63600           146.15721           146.65164           147.12230           147.57084           147.99393           148.39512           148.77909           149.14108           149.48323           149.81017           150.12140           150.41990           150.70644           150.98053           147.36527           142.10028           139.29185           138.09204           137.18452           135.95403           134.33524           132.49744           130.64376           128.94377           127.48569           126.30238           125.40510           124.77046           124.36851           124.17502           124.16153           124.30030           124.57361           124.96319           125.45274           126.02805           126.67519           127.38375           128.14641           128.95325           129.79501           130.66662           131.56243           132.47040           133.38314           134.30226           135.22043           136.12723           137.01894           137.89415           138.75001           139.57769           140.37821           141.14978           141.88870           142.59846           143.27966           143.93215           144.55562           145.14911           145.71409           146.25081           146.76142           147.24698           147.70537           148.14012           148.55442           148.94512           149.31496           149.66717           150.00269           150.32475           150.63307           150.92787           146.46185           142.03527           139.41108           138.08426           136.95643           135.51070           133.71595           131.74110           129.77702           127.98212           126.43575           125.16572           124.18305           123.46604           122.98545           122.72021           122.64274           122.72782           122.95841           123.31674           123.78641           124.35419           125.00485           125.72651           126.51150           127.34987           128.23023           129.14656           130.09327           131.05603           132.02736           133.00779           133.98902           134.96013           135.91681           136.85705           137.77701           138.66773           139.52973           140.36056           141.15680           141.92195           142.65575           143.35875           144.03079           144.66990           145.27799           145.85599           146.40565           146.92763           147.42074           147.88817           148.33279           148.75203           149.14913           149.52640           149.88548           150.23106           150.56092           150.87579           147.28517           142.93297           140.08865           138.37678           136.87526           135.15298           133.18695           131.11728           129.09959           127.26355           125.67232           124.34644           123.29517           122.49980           121.93617           121.58677           121.42882           121.44004           121.60626           121.91144           122.34019           122.87881           123.51329           124.22987           125.02045           125.87451           126.77926           127.72798           128.71355           129.72110           130.74178           131.77535           132.81186           133.84118           134.85768           135.85698           136.83635           137.78667           138.70636           139.59293           140.44442           141.26255           142.04686           142.79852           143.51773           144.20143           144.85093           145.46928           146.05699           146.61425           147.14124           147.64071           148.11467           148.56216           148.98648           149.38810           149.77075           150.13912           150.48971           150.82502           144.08846           140.73117           138.46172           136.94274           135.50409           133.85674           132.01065           130.08678           128.20993           126.48477           124.96265           123.66202           122.59682           121.75769           121.12850           120.70174           120.46121           120.39119           120.48192           120.72039           121.09277           121.58760           122.19038           122.88709           123.66920           124.52534           125.44219           126.41204           127.42590           128.46779           129.52967           130.60843           131.69313           132.77399           133.84414           134.89784           135.93182           136.93727           137.91112           138.85058           139.75404           140.62287           141.45535           142.25373           143.01793           143.74403           144.43435           145.09164           145.71583           146.30777           146.86822           147.39859           147.90152           148.37664           148.82644           149.25259           149.65876           150.04929           150.42096           150.77629           135.67466           134.47974           133.72113           133.09822           132.27143           131.14318           129.78215           128.30437           126.81067           125.38790           124.08276           122.91894           121.92149           121.09542           120.44032           119.96107           119.65300           119.50818           119.52486           119.69385           120.00486           120.44831           121.01099           121.67867           122.44297           123.29175           124.21155           125.19359           126.22668           127.29566           128.39082           129.50747           130.63378           131.76062           132.87940           133.98172           135.06590           136.12223           137.14629           138.13528           139.08793           140.00437           140.88295           141.72585           142.53300           143.30024           144.02955           144.72402           145.38357           146.00919           146.60165           147.16241           147.69380           148.19593           148.67094           149.12038           149.54973           149.96197           150.35393           150.72936           130.84099           130.64482           130.45225           130.04110           129.36761           128.47918           127.45427           126.36090           125.24368           124.14737           123.09786           122.11379           121.22488           120.44846           119.79741           119.29018           118.93239           118.72656           118.67761           118.78244           119.03392           119.42615           119.94652           120.58234           121.32443           122.16046           123.07749           124.06577           125.11274           126.20183           127.32449           128.47357           129.63565           130.80270           131.96485           133.11149           134.24097           135.34397           136.41463           137.45009           138.44878           139.41003           140.33167           141.21755           142.06546           142.87111           143.63829           144.36868           145.06182           145.71953           146.34342           146.93332           147.49206           148.02058           148.51984           148.99258           149.44413           149.87740           150.28988           150.68456           126.09432           127.14494           127.58154           127.36128           126.78055           126.05297           125.28465           124.50707           123.71424           122.91159           122.10145           121.29335           120.51927           119.80363           119.17094           118.65002           118.25696           118.00192           117.89811           117.94673           118.14541           118.49004           118.97026           119.57486           120.29449           121.11612           122.02784           123.01897           124.07542           125.18127           126.32644           127.50299           128.69665           129.89938           131.10007           132.28680           133.45847           134.60420           135.71783           136.79661           137.83826           138.84131           139.80379           140.72937           141.61576           142.45828           143.26110           144.02588           144.75154           145.44055           146.09393           146.71190           147.29758           147.85113           148.37373           148.86920           149.34278           149.79635           150.22842           150.64225           122.67783           124.98297           125.92319           125.73119           125.06600           124.32072           123.64013           123.02982           122.44065           121.83933           121.20301           120.52883           119.84457           119.17850           118.56146           118.03027           117.60803           117.31283           117.16205           117.16284           117.31530           117.61826           118.06265           118.63902           119.33773           120.14549           121.05117           122.04356           123.10830           124.22770           125.39241           126.59302           127.81462           129.04929           130.28466           131.50839           132.71825           133.90307           135.05646           136.17525           137.25666           138.29903           139.29984           140.26280           141.18520           142.06283           142.89985           143.69700           144.45343           145.17216           145.85435           146.49875           147.10997           147.68805           148.23348           148.75129           149.24543           149.71878           150.17026           150.60223           122.16155           124.84443           125.74515           125.24856           124.26585           123.31408           122.55874           121.97569           121.47282           120.97940           120.44640           119.85501           119.22677           118.58956           117.97784           117.43246           116.98275           116.65111           116.45968           116.41855           116.53154           116.79839           117.21169           117.76361           118.44438           119.23980           120.14033           121.13404           122.20544           123.33782           124.51956           125.74186           126.98931           128.25263           129.51938           130.77652           132.02139           133.24208           134.43172           135.58732           136.70582           137.78445           138.82130           139.81929           140.77552           141.68642           142.55544           143.38300           144.16841           144.91546           145.62477           146.29516           146.93089           147.53177           148.09945           148.63863           149.15303           149.64551           150.11557           150.56560           120.86469           124.14944           125.31351           124.78840           123.67044           122.60025           121.78730           121.20480           120.74054           120.30163           119.82275           119.27418           118.67093           118.04180           117.42246           116.85679           116.37772           116.01222           115.78370           115.70620           115.78489           116.02135           116.40859           116.93990           117.60586           118.39212           119.28914           120.28421           121.36288           122.50710           123.70460           124.94643           126.21769           127.50718           128.80206           130.09029           131.36691           132.62049           133.84389           135.03378           136.18627           137.29840           138.36884           139.39973           140.38721           141.32899           142.22809           143.08411           143.89740           144.67142           145.40643           146.10127           146.76046           147.38316           147.97186           148.53176           149.06522           149.57675           150.06498           150.53159           120.60845           124.10617           125.41964           124.86057           123.60458           122.38154           121.44873           120.79035           120.28572           119.82928           119.34349           118.78899           118.17575           117.53035           116.88907           116.29535           115.78525           115.38696           115.12590           115.01680           115.06728           115.27847           115.64506           116.16074           116.81556           117.59542           118.49137           119.48981           120.57563           121.73199           122.94414           124.20438           125.49770           126.81099           128.13224           129.44831           130.75437           132.03834           133.29232           134.51348           135.69770           136.84102           137.94264           139.00375           140.02063           140.99133           141.91830           142.80128           143.64089           144.43996           145.19908           145.91768           146.59851           147.24205           147.85175           148.43081           148.98321           149.51282           150.01758           150.50120           120.91887           124.44117           125.85040           125.26416           123.87278           122.47745           121.38542           120.59932           119.99921           119.47413           118.93831           118.34502           117.69807           117.02229           116.35119           115.72776           115.18825           114.76233           114.47421           114.34099           114.37002           114.56308           114.91528           115.42048           116.06839           116.84610           117.74328           118.74587           119.84066           121.00895           122.23576           123.51348           124.82751           126.16314           127.50829           128.85058           130.18314           131.49507           132.77770           134.02749           135.24038           136.41275           137.54285           138.63210           139.67634           140.67383           141.62698           142.53504           143.39930           144.22189           145.00338           145.74408           146.44618           147.10953           147.73857           148.33674           148.90682           149.45319           149.97436           150.47397           122.56121           125.83085           127.03061           126.17017           124.47025           122.78468           121.45052           120.47691           119.73837           119.11434           118.50767           117.86265           117.17727           116.47049           115.77393           115.12715           114.56696           114.12203           113.81709           113.66861           113.68501           113.86726           114.21243           114.71313           115.35894           116.13825           117.03960           118.04927           119.15353           120.33444           121.57605           122.87069           124.20402           125.56050           126.92799  