# vtk DataFile Version 3.0
Output from R2
ASCII
DATASET UNSTRUCTURED_GRID
POINTS      18361 double
    -0.25700     0.04600   0.
    -0.25700    -0.04600   0.
    -0.25700    -0.14000   0.
    -0.25700    -0.23500   0.
    -0.25700    -0.33200   0.
    -0.25700    -0.43000   0.
    -0.25700    -0.53100   0.
    -0.25700    -0.63300   0.
    -0.25700    -0.73700   0.
    -0.25700    -0.84400   0.
    -0.25700    -0.95200   0.
    -0.25700    -1.06200   0.
    -0.25700    -1.17400   0.
    -0.25700    -1.28800   0.
    -0.25700    -1.40500   0.
    -0.25700    -1.52300   0.
    -0.25700    -1.64400   0.
    -0.25700    -1.76700   0.
    -0.25700    -1.89200   0.
    -0.25700    -2.01900   0.
    -0.25700    -2.14900   0.
    -0.25700    -2.28200   0.
    -0.25700    -2.41600   0.
    -0.25700    -2.55400   0.
    -0.25700    -2.69300   0.
    -0.25700    -2.83600   0.
    -0.25700    -2.98100   0.
    -0.25700    -3.12800   0.
    -0.25700    -3.27900   0.
    -0.25700    -3.43200   0.
    -0.25700    -3.58800   0.
    -0.25700    -3.74700   0.
    -0.25700    -3.90900   0.
    -0.25700    -4.07400   0.
    -0.25700    -4.24200   0.
    -0.25700    -4.41300   0.
    -0.25700    -4.58700   0.
    -0.25700    -4.76400   0.
    -0.25700    -4.94500   0.
    -0.25700    -5.12900   0.
    -0.25700    -5.31600   0.
    -0.25700    -5.50700   0.
    -0.25700    -5.70200   0.
    -0.25700    -5.90000   0.
    -0.25700    -6.10200   0.
    -0.25700    -6.30700   0.
    -0.25700    -6.51600   0.
    -0.25700    -6.72900   0.
    -0.25700    -6.94600   0.
    -0.25700    -7.16700   0.
    -0.25700    -7.39300   0.
    -0.25700    -7.62200   0.
    -0.25700    -7.85500   0.
    -0.25700    -8.09300   0.
    -0.25700    -8.33600   0.
    -0.25700    -8.58200   0.
    -0.25700    -8.83400   0.
    -0.25700    -9.09000   0.
    -0.25700    -9.35000   0.
    -0.25700    -9.61600   0.
    -0.25700    -9.88400   0.
     0.25700     0.04600   0.
     0.25700    -0.04600   0.
     0.25700    -0.14000   0.
     0.25700    -0.23500   0.
     0.25700    -0.33200   0.
     0.25700    -0.43000   0.
     0.25700    -0.53100   0.
     0.25700    -0.63300   0.
     0.25700    -0.73700   0.
     0.25700    -0.84400   0.
     0.25700    -0.95200   0.
     0.25700    -1.06200   0.
     0.25700    -1.17400   0.
     0.25700    -1.28800   0.
     0.25700    -1.40500   0.
     0.25700    -1.52300   0.
     0.25700    -1.64400   0.
     0.25700    -1.76700   0.
     0.25700    -1.89200   0.
     0.25700    -2.01900   0.
     0.25700    -2.14900   0.
     0.25700    -2.28200   0.
     0.25700    -2.41600   0.
     0.25700    -2.55400   0.
     0.25700    -2.69300   0.
     0.25700    -2.83600   0.
     0.25700    -2.98100   0.
     0.25700    -3.12800   0.
     0.25700    -3.27900   0.
     0.25700    -3.43200   0.
     0.25700    -3.58800   0.
     0.25700    -3.74700   0.
     0.25700    -3.90900   0.
     0.25700    -4.07400   0.
     0.25700    -4.24200   0.
     0.25700    -4.41300   0.
     0.25700    -4.58700   0.
     0.25700    -4.76400   0.
     0.25700    -4.94500   0.
     0.25700    -5.12900   0.
     0.25700    -5.31600   0.
     0.25700    -5.50700   0.
     0.25700    -5.70200   0.
     0.25700    -5.90000   0.
     0.25700    -6.10200   0.
     0.25700    -6.30700   0.
     0.25700    -6.51600   0.
     0.25700    -6.72900   0.
     0.25700    -6.94600   0.
     0.25700    -7.16700   0.
     0.25700    -7.39300   0.
     0.25700    -7.62200   0.
     0.25700    -7.85500   0.
     0.25700    -8.09300   0.
     0.25700    -8.33600   0.
     0.25700    -8.58200   0.
     0.25700    -8.83400   0.
     0.25700    -9.09000   0.
     0.25700    -9.35000   0.
     0.25700    -9.61600   0.
     0.25700    -9.88400   0.
     0.77100     0.04600   0.
     0.77100    -0.04600   0.
     0.77100    -0.14000   0.
     0.77100    -0.23500   0.
     0.77100    -0.33200   0.
     0.77100    -0.43000   0.
     0.77100    -0.53100   0.
     0.77100    -0.63300   0.
     0.77100    -0.73700   0.
     0.77100    -0.84400   0.
     0.77100    -0.95200   0.
     0.77100    -1.06200   0.
     0.77100    -1.17400   0.
     0.77100    -1.28800   0.
     0.77100    -1.40500   0.
     0.77100    -1.52300   0.
     0.77100    -1.64400   0.
     0.77100    -1.76700   0.
     0.77100    -1.89200   0.
     0.77100    -2.01900   0.
     0.77100    -2.14900   0.
     0.77100    -2.28200   0.
     0.77100    -2.41600   0.
     0.77100    -2.55400   0.
     0.77100    -2.69300   0.
     0.77100    -2.83600   0.
     0.77100    -2.98100   0.
     0.77100    -3.12800   0.
     0.77100    -3.27900   0.
     0.77100    -3.43200   0.
     0.77100    -3.58800   0.
     0.77100    -3.74700   0.
     0.77100    -3.90900   0.
     0.77100    -4.07400   0.
     0.77100    -4.24200   0.
     0.77100    -4.41300   0.
     0.77100    -4.58700   0.
     0.77100    -4.76400   0.
     0.77100    -4.94500   0.
     0.77100    -5.12900   0.
     0.77100    -5.31600   0.
     0.77100    -5.50700   0.
     0.77100    -5.70200   0.
     0.77100    -5.90000   0.
     0.77100    -6.10200   0.
     0.77100    -6.30700   0.
     0.77100    -6.51600   0.
     0.77100    -6.72900   0.
     0.77100    -6.94600   0.
     0.77100    -7.16700   0.
     0.77100    -7.39300   0.
     0.77100    -7.62200   0.
     0.77100    -7.85500   0.
     0.77100    -8.09300   0.
     0.77100    -8.33600   0.
     0.77100    -8.58200   0.
     0.77100    -8.83400   0.
     0.77100    -9.09000   0.
     0.77100    -9.35000   0.
     0.77100    -9.61600   0.
     0.77100    -9.88400   0.
     1.28600     0.04600   0.
     1.28600    -0.04600   0.
     1.28600    -0.14000   0.
     1.28600    -0.23500   0.
     1.28600    -0.33200   0.
     1.28600    -0.43000   0.
     1.28600    -0.53100   0.
     1.28600    -0.63300   0.
     1.28600    -0.73700   0.
     1.28600    -0.84400   0.
     1.28600    -0.95200   0.
     1.28600    -1.06200   0.
     1.28600    -1.17400   0.
     1.28600    -1.28800   0.
     1.28600    -1.40500   0.
     1.28600    -1.52300   0.
     1.28600    -1.64400   0.
     1.28600    -1.76700   0.
     1.28600    -1.89200   0.
     1.28600    -2.01900   0.
     1.28600    -2.14900   0.
     1.28600    -2.28200   0.
     1.28600    -2.41600   0.
     1.28600    -2.55400   0.
     1.28600    -2.69300   0.
     1.28600    -2.83600   0.
     1.28600    -2.98100   0.
     1.28600    -3.12800   0.
     1.28600    -3.27900   0.
     1.28600    -3.43200   0.
     1.28600    -3.58800   0.
     1.28600    -3.74700   0.
     1.28600    -3.90900   0.
     1.28600    -4.07400   0.
     1.28600    -4.24200   0.
     1.28600    -4.41300   0.
     1.28600    -4.58700   0.
     1.28600    -4.76400   0.
     1.28600    -4.94500   0.
     1.28600    -5.12900   0.
     1.28600    -5.31600   0.
     1.28600    -5.50700   0.
     1.28600    -5.70200   0.
     1.28600    -5.90000   0.
     1.28600    -6.10200   0.
     1.28600    -6.30700   0.
     1.28600    -6.51600   0.
     1.28600    -6.72900   0.
     1.28600    -6.94600   0.
     1.28600    -7.16700   0.
     1.28600    -7.39300   0.
     1.28600    -7.62200   0.
     1.28600    -7.85500   0.
     1.28600    -8.09300   0.
     1.28600    -8.33600   0.
     1.28600    -8.58200   0.
     1.28600    -8.83400   0.
     1.28600    -9.09000   0.
     1.28600    -9.35000   0.
     1.28600    -9.61600   0.
     1.28600    -9.88400   0.
     1.80000     0.04600   0.
     1.80000    -0.04600   0.
     1.80000    -0.14000   0.
     1.80000    -0.23500   0.
     1.80000    -0.33200   0.
     1.80000    -0.43000   0.
     1.80000    -0.53100   0.
     1.80000    -0.63300   0.
     1.80000    -0.73700   0.
     1.80000    -0.84400   0.
     1.80000    -0.95200   0.
     1.80000    -1.06200   0.
     1.80000    -1.17400   0.
     1.80000    -1.28800   0.
     1.80000    -1.40500   0.
     1.80000    -1.52300   0.
     1.80000    -1.64400   0.
     1.80000    -1.76700   0.
     1.80000    -1.89200   0.
     1.80000    -2.01900   0.
     1.80000    -2.14900   0.
     1.80000    -2.28200   0.
     1.80000    -2.41600   0.
     1.80000    -2.55400   0.
     1.80000    -2.69300   0.
     1.80000    -2.83600   0.
     1.80000    -2.98100   0.
     1.80000    -3.12800   0.
     1.80000    -3.27900   0.
     1.80000    -3.43200   0.
     1.80000    -3.58800   0.
     1.80000    -3.74700   0.
     1.80000    -3.90900   0.
     1.80000    -4.07400   0.
     1.80000    -4.24200   0.
     1.80000    -4.41300   0.
     1.80000    -4.58700   0.
     1.80000    -4.76400   0.
     1.80000    -4.94500   0.
     1.80000    -5.12900   0.
     1.80000    -5.31600   0.
     1.80000    -5.50700   0.
     1.80000    -5.70200   0.
     1.80000    -5.90000   0.
     1.80000    -6.10200   0.
     1.80000    -6.30700   0.
     1.80000    -6.51600   0.
     1.80000    -6.72900   0.
     1.80000    -6.94600   0.
     1.80000    -7.16700   0.
     1.80000    -7.39300   0.
     1.80000    -7.62200   0.
     1.80000    -7.85500   0.
     1.80000    -8.09300   0.
     1.80000    -8.33600   0.
     1.80000    -8.58200   0.
     1.80000    -8.83400   0.
     1.80000    -9.09000   0.
     1.80000    -9.35000   0.
     1.80000    -9.61600   0.
     1.80000    -9.88400   0.
     2.31400     0.04600   0.
     2.31400    -0.04600   0.
     2.31400    -0.14000   0.
     2.31400    -0.23500   0.
     2.31400    -0.33200   0.
     2.31400    -0.43000   0.
     2.31400    -0.53100   0.
     2.31400    -0.63300   0.
     2.31400    -0.73700   0.
     2.31400    -0.84400   0.
     2.31400    -0.95200   0.
     2.31400    -1.06200   0.
     2.31400    -1.17400   0.
     2.31400    -1.28800   0.
[...]
POINT_DATA     18361
CELL_DATA     18000
SCALARS Resistivity(Ohm-m) double 1
LOOKUP_TABLE default
            95.94368            92.63320            93.02867           100.10050           101.67540           101.72010           102.10450           107.10390           113.37440           118.20930           111.99040           106.44520           104.40300           103.55930            99.63381           100.12330           105.57640           109.26060           100.17020           100.34170           106.17770           110.51710           106.92130            97.14435            93.24462            96.35214           101.44140           108.69310           124.14940           125.98800           130.14750           132.40910           138.86590           154.93910           165.33970           187.12810           206.97600           264.14420           286.44640           219.71810           268.49360           296.62420           283.31040           271.59360           261.07790           231.46140           262.31590           272.28210           334.71590           318.09270           264.43850           168.89570           200.31600           282.70230           305.94440           251.50020           274.91990           330.20850           314.85600           285.84890            99.56489            92.67444            91.04503            98.92468           102.39100           104.05670           103.99140           104.24440           105.33910           108.44360           107.18560           107.48540           110.10030           107.60110            98.17048            98.91579           110.90910           118.40760           106.92570           106.08140           110.06320           112.32920           108.93160           101.81730            97.26920            96.09813            94.61932           107.00830           123.35190           119.64510           123.16210           135.66380           150.96300           163.64490           168.46930           192.59230           211.64150           262.05330           290.70010           261.65390           281.69250           310.32080           292.36280           267.58890           261.51010           235.48470           260.44020           278.45410           306.79870           297.90000           208.40500           174.18450           216.58160           253.22790           284.33590           231.91600           250.82490           320.52330           297.81770           245.85460            99.44610            95.71977            96.25385           104.46200           108.54730           110.58210           109.72480           112.33780           115.38290           115.89980           106.15070           100.51540           102.13660           102.69200            98.68993           100.57390           108.63810           112.52820           109.01740           107.00050           108.38150           109.94640           107.20020           100.86950            98.85261           100.97620           107.66050           111.64120           136.94700           123.93190           117.14580           143.90310           153.44040           156.09970           163.86390           184.05090           215.16850           242.49490           266.39390           248.81210           252.73100           310.61320           355.89500           233.15750           247.62270           248.59760           262.71570           267.41140           309.99570           306.61900           232.52260           186.59550           220.39150           225.12130           271.95560           267.01100           279.15610           400.40720           297.83300           261.76890           100.89190            99.20843            98.77954           100.61880           105.02210           109.07370           109.20960           112.87450           115.04030           109.20260           104.02100           101.67290           102.08550            97.71525            94.92797           100.34600           110.91750           111.92370           109.57630           112.70770           113.68060           111.38520           105.67020            97.45116            95.47527            98.30656           104.69400           109.26220           123.08460           134.67240           123.95260           135.47060           154.68410           160.15710           170.46930           181.73460           201.88120           233.91170           257.34200           237.59550           246.30370           270.96160           300.94730           268.45290           314.77780           263.06900           232.74880           285.10360           296.64940           263.61210           216.13880           185.85660           188.56140           223.23420           271.21710           228.51360           328.68080           369.45140           319.26730           244.86090           101.98190            99.97191           101.31090           108.66900           113.39340           116.26480           115.38600           115.90060           114.84780           107.92020           103.63190            99.29854            95.45880           101.66870           100.17580            96.98037            97.66195           109.45720           106.96330           105.97510           110.81540           114.09990           108.15340            97.76338            97.78819           106.38420           113.49420           110.73140           125.41770           134.46680           117.60930           123.27100           146.77150           151.44280           164.32840           176.39340           185.41720           232.92220           265.91330           210.66140           229.37050           254.01270           268.32750           251.46800           301.21460           230.05070           260.82440           231.04440           267.86680           266.08370           221.30040           208.62760           191.16020           216.65940           263.38580           262.13500           298.54420           336.55200           297.33640           212.66710           103.68310           105.52290           107.46220           109.55340           111.45150           114.95680           124.07990           130.47460           130.58020           115.92850           106.52460            97.88245            90.34873            94.81326            98.61362            99.07585            97.33704            99.11532            98.52963           109.00350           111.81000           107.14610           100.41860            95.41462           101.39250           107.97540           106.37060           110.91000           122.60660           131.21240           123.02750           138.32870           161.54730           167.02630           166.73080           172.69310           177.41340           205.51730           236.79680           216.00060           232.64500           271.01470           238.74480           250.89860           319.65810           247.04810           249.20230           246.24280           301.07910           290.85010           218.77230           177.11670           182.79610           224.22430           239.12710           273.51240           301.56870           334.68310           266.38380           204.97960           110.18990           111.20910           111.24360           109.50210           113.69910           119.86630           126.59460           126.60980           121.59100           109.65980           103.23060            99.41892            97.55492            95.80927            96.14258            97.95833           101.13960           105.70250           102.08210           105.32950           109.21580           108.95820           105.12660           102.42980           102.35880           109.65760           117.75980           122.43880           130.20140           119.39120           118.51260           140.30660           161.25300           183.75920           182.19730           184.17410           208.48500           216.89140           236.50790           223.69260           240.53330           276.34790           306.49850           287.62990           278.06640           251.65450           253.37760           234.97160           244.78230           287.94080           213.87590           183.95520           195.26480           226.29150           221.25370           274.76880           279.23800           338.50420           296.15820           217.69700           104.42450           112.53220           117.52510           116.83080           120.92150           126.38070           131.52800           130.66410           125.99910           117.13100           104.23630            94.60931            90.73142            94.09858            94.89768            95.01711            96.03316            99.84846           100.95180           103.67050           108.49660           108.35130           103.08570           101.78240           103.08140           106.51310           109.29990           106.73570           115.86610           120.18720           121.88270           135.91830           154.54000           168.46210           170.58150           190.24070           203.61680           208.85720           217.94780           211.95420           247.91500           299.34120           308.50820           248.60940           285.44180           235.46410           198.52760           217.64210           246.63860           249.53130           229.84690           197.59480           199.24370           231.87610           261.61490           316.48210           265.95350           363.16140           291.26240           214.41200           116.27010           120.98820           123.58390           122.31590           122.57110           124.29590           129.46760           127.33050           121.26120           112.02340           107.36530           103.64550           100.36390           100.05360           101.22300           101.35960           100.05590            98.95355            96.69659            96.51280           100.67790           104.08720           102.12840            99.01856           104.01110           108.21350            99.92006           110.97550           117.89920           110.63350           117.99180           137.72410           156.78750           154.98750           159.78540           194.88370           208.54320           220.96010           238.71020           244.15540           223.49630           286.21000           267.72450           305.93130           301.86510           247.32770           198.05110           205.52970           229.62630           245.85240           217.82490           199.99500           199.10060           224.46780           247.89260           238.71540           322.95580           296.60480           261.63440           215.04980           116.38020           122.29020           125.58550           124.11970           123.77140           124.71720           128.93990           130.76120           127.89860           114.47890           101.60500            95.39734            97.39653           101.12390           100.95060           100.95780           101.12400            97.48634            98.58772            94.48376            97.37247           103.83470           104.91180           102.09950           107.80010           102.18480           104.16140           107.20510           121.00210           123.30060           117.82710           139.43370           144.95020           159.61540           180.04650           212.15670           221.25480           252.61940           262.38270           229.29160           221.61930           263.29160           235.94570           258.87700           276.98170           223.17920           204.96450           226.21830           242.79310           237.46900           233.60000           217.72110           195.95020           266.70830           221.65570           269.90530           301.24950           314.93820           241.95870           222.18620           122.01900           123.10300           124.38370           126.00070           130.62650           136.62720           144.13020           136.89570           123.03090           106.44590           101.96520           101.90190           103.60790            97.97322            94.75451            93.97433            94.13553            91.40679            95.17049            95.98803           101.92240           107.66540           106.48830           101.65530           101.92400           103.64190           105.37120           103.61500           114.52490           116.08420           114.33710           145.93580           157.24300           158.23800           163.29610           198.10730           227.45150           253.84310           260.02050           242.80900           233.93540           240.35760           223.60980           247.69520           274.34910           217.18690           192.58850           194.76960           194.31880           219.97840           259.38220           223.42400           188.33930           241.83470           223.67030           242.75260           292.13460           292.21760           261.59350           221.50080           125.12590           129.39470           130.88820           127.35630           131.77250           139.71390           151.45980           141.14730           122.54180           104.41730            99.92912            98.80763            98.10771            92.54200            96.02220            99.02825            97.40743            90.90334            93.77614            94.68348            98.08735           102.91440           105.68820           104.39070           100.37610            98.95550            99.12802           100.24670           107.56200           124.66510           136.19990           138.10020           142.44800           154.70840           176.65470           219.63980           245.10000           252.69500           267.87540           227.58020           199.43610           206.62790           206.64610           243.73060           276.67110           241.33320           207.19190           224.32370           195.42880           221.59850           244.34990           235.10000           227.02780           237.65720           231.49120           246.05760           271.66980           249.92350           241.37520           224.56270           123.60430           131.80300           135.06990           129.39800           129.06770           133.00080           146.02230           139.31630           124.71530           109.17300           100.92820            97.80875            99.21043           100.11710            97.18597            94.32816            93.22767            93.96463            92.65961            92.93790            95.64347           100.06080           103.64050           104.66250           105.83590           105.78330           104.59110           105.69980           107.61800           122.09790           132.55380           137.94440           159.51940           166.70560           187.24440           204.59680           232.53010           255.19090           273.53770           253.36180           216.28840           201.38810           211.98910           254.59100           256.79550           227.20010           206.48510           205.43440           182.94110           201.80680           242.67750           250.49850           243.47980           226.64280           224.19650           262.33690           266.94580           295.87650           264.27170           231.21910           125.37630           124.96410           126.44730           131.32700           131.98450           132.82560           138.56650           138.84560           133.81790           119.77670           104.90340            96.87114            98.04813           105.07620           100.87440            94.85141            92.76764            99.05086            96.60516            93.37452            96.46877           100.47930           101.90660           106.09460           111.56620           105.55190           102.41520           100.77650           111.45910           124.23660           134.41560           145.08110           149.75660           153.74960           173.11680           199.07570           237.93510           264.81550           231.00350           255.52960           215.91540           208.55820           205.16030           264.02310           248.64350           251.63070           217.38980           186.51590           170.45080           195.17630           225.02710           273.74530           263.12740           230.23460           248.80480           223.46000           278.76840           285.00470           230.62690           224.23830           123.46740           131.76740           138.67090           142.95800           142.09770           139.49620           136.22320           133.05950           129.19850           123.31400           110.75430           103.06730           102.40300            97.70753            93.72549            94.33410            97.32456            93.17791            94.15693            92.79711            96.00902           101.67870           106.59460           112.17200           117.19190           108.20840           101.67770           100.14210           108.34330           116.54410           131.12650           139.69880           155.64380           164.49850           178.40960           211.07570           232.61960           253.90880           272.30210           236.43210           200.38590           185.39330           214.66610           255.51060           225.54050           216.75930           214.18500           192.39420           157.54570           193.57370           249.09480           287.09380           285.98550           247.05330           259.02420           251.81210           235.35360           221.92880           245.45100           219.15510           127.75730           133.79170           140.32860           147.67850           143.07840           137.66240           141.73490           150.00260           151.56740           129.80910           115.67600           106.89410           103.50180           105.38970           101.22250            97.85912            96.65035            93.97088            90.29013            99.03899           105.61200           107.80370           110.29910           113.69780           110.95990           113.04360           102.76850           101.54340           120.17660           125.81710           140.95170           152.53340           156.97490           169.37130           182.18980           199.46390           219.16800           222.46530           235.67770           229.10560           211.12800           203.20050           203.86290           242.25860           218.08110           199.65160           212.29920           173.26290           167.15990           186.88310           256.70430           301.81620           310.79330           256.58290           246.02510           299.79060           225.90880           238.14550           238.29360           204.24190           132.36570           134.43250           137.68580           143.03190           142.75170           141.50070           142.67240           140.75200           135.78290           125.61530           114.87820           106.23980           101.08680           102.79070            99.32910            97.29106            96.96459            92.48689            94.51171           100.37640           105.46010           109.31590           113.42600           115.52340           108.33150           101.93000           101.81940           105.61260           117.56070           127.25200           146.04060           155.13940           157.68150           174.35500           176.034