# vtk DataFile Version 3.0
Output from R2
ASCII
DATASET UNSTRUCTURED_GRID
POINTS      18361 double
    -0.50200     0.06900   0.
    -0.50200    -0.06900   0.
    -0.50200    -0.20900   0.
    -0.50200    -0.35300   0.
    -0.50200    -0.50100   0.
    -0.50200    -0.65400   0.
    -0.50200    -0.81000   0.
    -0.50200    -0.97100   0.
    -0.50200    -1.13600   0.
    -0.50200    -1.30500   0.
    -0.50200    -1.48000   0.
    -0.50200    -1.65900   0.
    -0.50200    -1.84300   0.
    -0.50200    -2.03200   0.
    -0.50200    -2.22700   0.
    -0.50200    -2.42700   0.
    -0.50200    -2.63200   0.
    -0.50200    -2.84300   0.
    -0.50200    -3.06000   0.
    -0.50200    -3.28300   0.
    -0.50200    -3.51200   0.
    -0.50200    -3.74700   0.
    -0.50200    -3.98900   0.
    -0.50200    -4.23800   0.
    -0.50200    -4.49300   0.
    -0.50200    -4.75600   0.
    -0.50200    -5.02600   0.
    -0.50200    -5.30300   0.
    -0.50200    -5.58800   0.
    -0.50200    -5.88000   0.
    -0.50200    -6.18100   0.
    -0.50200    -6.49100   0.
    -0.50200    -6.80800   0.
    -0.50200    -7.13500   0.
    -0.50200    -7.47000   0.
    -0.50200    -7.81500   0.
    -0.50200    -8.17000   0.
    -0.50200    -8.53400   0.
    -0.50200    -8.90800   0.
    -0.50200    -9.29300   0.
    -0.50200    -9.68800   0.
    -0.50200   -10.09400   0.
    -0.50200   -10.51200   0.
    -0.50200   -10.94100   0.
    -0.50200   -11.38100   0.
    -0.50200   -11.83400   0.
    -0.50200   -12.30000   0.
    -0.50200   -12.77800   0.
    -0.50200   -13.27000   0.
    -0.50200   -13.77500   0.
    -0.50200   -14.29500   0.
    -0.50200   -14.82800   0.
    -0.50200   -15.37600   0.
    -0.50200   -15.94000   0.
    -0.50200   -16.51900   0.
    -0.50200   -17.11400   0.
    -0.50200   -17.72600   0.
    -0.50200   -18.35400   0.
    -0.50200   -19.00000   0.
    -0.50200   -19.66400   0.
    -0.50200   -20.33600   0.
     0.50200     0.06900   0.
     0.50200    -0.06900   0.
     0.50200    -0.20900   0.
     0.50200    -0.35300   0.
     0.50200    -0.50100   0.
     0.50200    -0.65400   0.
     0.50200    -0.81000   0.
     0.50200    -0.97100   0.
     0.50200    -1.13600   0.
     0.50200    -1.30500   0.
     0.50200    -1.48000   0.
     0.50200    -1.65900   0.
     0.50200    -1.84300   0.
     0.50200    -2.03200   0.
     0.50200    -2.22700   0.
     0.50200    -2.42700   0.
     0.50200    -2.63200   0.
     0.50200    -2.84300   0.
     0.50200    -3.06000   0.
     0.50200    -3.28300   0.
     0.50200    -3.51200   0.
     0.50200    -3.74700   0.
     0.50200    -3.98900   0.
     0.50200    -4.23800   0.
     0.50200    -4.49300   0.
     0.50200    -4.75600   0.
     0.50200    -5.02600   0.
     0.50200    -5.30300   0.
     0.50200    -5.58800   0.
     0.50200    -5.88000   0.
     0.50200    -6.18100   0.
     0.50200    -6.49100   0.
     0.50200    -6.80800   0.
     0.50200    -7.13500   0.
     0.50200    -7.47000   0.
     0.50200    -7.81500   0.
     0.50200    -8.17000   0.
     0.50200    -8.53400   0.
     0.50200    -8.90800   0.
     0.50200    -9.29300   0.
     0.50200    -9.68800   0.
     0.50200   -10.09400   0.
     0.50200   -10.51200   0.
     0.50200   -10.94100   0.
     0.50200   -11.38100   0.
     0.50200   -11.83400   0.
     0.50200   -12.30000   0.
     0.50200   -12.77800   0.
     0.50200   -13.27000   0.
     0.50200   -13.77500   0.
     0.50200   -14.29500   0.
     0.50200   -14.82800   0.
     0.50200   -15.37600   0.
     0.50200   -15.94000   0.
     0.50200   -16.51900   0.
     0.50200   -17.11400   0.
     0.50200   -17.72600   0.
     0.50200   -18.35400   0.
     0.50200   -19.00000   0.
     0.50200   -19.66400   0.
     0.50200   -20.33600   0.
     1.50500     0.06900   0.
     1.50500    -0.06900   0.
     1.50500    -0.20900   0.
     1.50500    -0.35300   0.
     1.50500    -0.50100   0.
     1.50500    -0.65400   0.
     1.50500    -0.81000   0.
     1.50500    -0.97100   0.
     1.50500    -1.13600   0.
     1.50500    -1.30500   0.
     1.50500    -1.48000   0.
     1.50500    -1.65900   0.
     1.50500    -1.84300   0.
     1.50500    -2.03200   0.
     1.50500    -2.22700   0.
     1.50500    -2.42700   0.
     1.50500    -2.63200   0.
     1.50500    -2.84300   0.
     1.50500    -3.06000   0.
     1.50500    -3.28300   0.
     1.50500    -3.51200   0.
     1.50500    -3.74700   0.
     1.50500    -3.98900   0.
     1.50500    -4.23800   0.
     1.50500    -4.49300   0.
     1.50500    -4.75600   0.
     1.50500    -5.02600   0.
     1.50500    -5.30300   0.
     1.50500    -5.58800   0.
     1.50500    -5.88000   0.
     1.50500    -6.18100   0.
     1.50500    -6.49100   0.
     1.50500    -6.80800   0.
     1.50500    -7.13500   0.
     1.50500    -7.47000   0.
     1.50500    -7.81500   0.
     1.50500    -8.17000   0.
     1.50500    -8.53400   0.
     1.50500    -8.90800   0.
     1.50500    -9.29300   0.
     1.50500    -9.68800   0.
     1.50500   -10.09400   0.
     1.50500   -10.51200   0.
     1.50500   -10.94100   0.
     1.50500   -11.38100   0.
     1.50500   -11.83400   0.
     1.50500   -12.30000   0.
     1.50500   -12.77800   0.
     1.50500   -13.27000   0.
     1.50500   -13.77500   0.
     1.50500   -14.29500   0.
     1.50500   -14.82800   0.
     1.50500   -15.37600   0.
     1.50500   -15.94000   0.
     1.50500   -16.51900   0.
     1.50500   -17.11400   0.
     1.50500   -17.72600   0.
     1.50500   -18.35400   0.
     1.50500   -19.00000   0.
     1.50500   -19.66400   0.
     1.50500   -20.33600   0.
     2.50800     0.06900   0.
     2.50800    -0.06900   0.
     2.50800    -0.20900   0.
     2.50800    -0.35300   0.
     2.50800    -0.50100   0.
     2.50800    -0.65400   0.
     2.50800    -0.81000   0.
     2.50800    -0.97100   0.
     2.50800    -1.13600   0.
     2.50800    -1.30500   0.
     2.50800    -1.48000   0.
     2.50800    -1.65900   0.
     2.50800    -1.84300   0.
     2.50800    -2.03200   0.
     2.50800    -2.22700   0.
     2.50800    -2.42700   0.
     2.50800    -2.63200   0.
     2.50800    -2.84300   0.
     2.50800    -3.06000   0.
     2.50800    -3.28300   0.
     2.50800    -3.51200   0.
     2.50800    -3.74700   0.
     2.50800    -3.98900   0.
     2.50800    -4.23800   0.
     2.50800    -4.49300   0.
     2.50800    -4.75600   0.
     2.50800    -5.02600   0.
     2.50800    -5.30300   0.
     2.50800    -5.58800   0.
     2.50800    -5.88000   0.
     2.50800    -6.18100   0.
     2.50800    -6.49100   0.
     2.50800    -6.80800   0.
     2.50800    -7.13500   0.
     2.50800    -7.47000   0.
     2.50800    -7.81500   0.
     2.50800    -8.17000   0.
     2.50800    -8.53400   0.
     2.50800    -8.90800   0.
     2.50800    -9.29300   0.
     2.50800    -9.68800   0.
     2.50800   -10.09400   0.
     2.50800   -10.51200   0.
     2.50800   -10.94100   0.
     2.50800   -11.38100   0.
     2.50800   -11.83400   0.
     2.50800   -12.30000   0.
     2.50800   -12.77800   0.
     2.50800   -13.27000   0.
     2.50800   -13.77500   0.
     2.50800   -14.29500   0.
     2.50800   -14.82800   0.
     2.50800   -15.37600   0.
     2.50800   -15.94000   0.
     2.50800   -16.51900   0.
     2.50800   -17.11400   0.
     2.50800   -17.72600   0.
     2.50800   -18.35400   0.
     2.50800   -19.00000   0.
     2.50800   -19.66400   0.
     2.50800   -20.33600   0.
     3.51200     0.06900   0.
     3.51200    -0.06900   0.
     3.51200    -0.20900   0.
     3.51200    -0.35300   0.
     3.51200    -0.50100   0.
     3.51200    -0.65400   0.
     3.51200    -0.81000   0.
     3.51200    -0.97100   0.
     3.51200    -1.13600   0.
     3.51200    -1.30500   0.
     3.51200    -1.48000   0.
     3.51200    -1.65900   0.
     3.51200    -1.84300   0.
     3.51200    -2.03200   0.
     3.51200    -2.22700   0.
     3.51200    -2.42700   0.
     3.51200    -2.63200   0.
     3.51200    -2.84300   0.
     3.51200    -3.06000   0.
     3.51200    -3.28300   0.
     3.51200    -3.51200   0.
     3.51200    -3.74700   0.
     3.51200    -3.98900   0.
     3.51200    -4.23800   0.
     3.51200    -4.49300   0.
     3.51200    -4.75600   0.
     3.51200    -5.02600   0.
     3.51200    -5.30300   0.
     3.51200    -5.58800   0.
     3.51200    -5.88000   0.
     3.51200    -6.18100   0.
     3.51200    -6.49100   0.
     3.51200    -6.80800   0.
     3.51200    -7.13500   0.
     3.51200    -7.47000   0.
     3.51200    -7.81500   0.
     3.51200    -8.17000   0.
     3.51200    -8.53400   0.
     3.51200    -8.90800   0.
     3.51200    -9.29300   0.
     3.51200    -9.68800   0.
     3.51200   -10.09400   0.
     3.51200   -10.51200   0.
     3.51200   -10.94100   0.
     3.51200   -11.38100   0.
     3.51200   -11.83400   0.
     3.51200   -12.30000   0.
     3.51200   -12.77800   0.
     3.51200   -13.27000   0.
     3.51200   -13.77500   0.
     3.51200   -14.29500   0.
     3.51200   -14.82800   0.
     3.51200   -15.37600   0.
     3.51200   -15.94000   0.
     3.51200   -16.51900   0.
     3.51200   -17.11400   0.
     3.51200   -17.72600   0.
     3.51200   -18.35400   0.
     3.51200   -19.00000   0.
     3.51200   -19.66400   0.
     3.51200   -20.33600   0.
     4.51500     0.06900   0.
     4.51500    -0.06900   0.
     4.51500    -0.20900   0.
     4.51500    -0.35300   0.
     4.51500    -0.50100   0.
     4.51500    -0.65400   0.
     4.51500    -0.81000   0.
     4.51500    -0.97100   0.
     4.51500    -1.13600   0.
     4.51500    -1.30500   0.
     4.51500    -1.48000   0.
     4.51500    -1.65900   0.
     4.51500    -1.84300   0.
     4.51500    -2.03200   0.
[...]
POINT_DATA     18361
CELL_DATA     18000
SCALARS Resistivity(Ohm-m) double 1
LOOKUP_TABLE default
           130.36370           126.21080           131.08190           144.68860           151.49540           142.23790           130.39020           133.12510           127.33420           109.83470           104.67450           103.24200            98.97157           109.12440           132.06970           120.98480           117.95390           120.59780           143.20890           131.97470           143.35040           141.91760           144.63890           142.56380           158.01400           137.96280           121.80480           112.15830           123.74340           124.48520           120.47440           130.72310           125.32070           120.33550           124.65880           153.06400           172.72010           128.17400           134.65790           121.00720           105.42210            98.77646           102.17380            95.88350           109.48520            94.59306            97.88781           112.55320           130.05390           166.11210           203.49580           143.58620           149.76550           112.70230           122.63690           149.81360           156.03170           151.75060           186.79400           170.74090           133.04200           114.23810           121.04620           133.97990           145.55250           142.26930           135.41990           134.55890           134.88410           119.21090           113.96270           103.84510           103.31330           104.82360           113.60120           121.66690           131.57830           129.66500           124.99280           118.32860           145.12280           159.13590           155.45620           167.65000           157.61460           137.32620           128.92890           114.81410           129.69460           121.43710           125.24280           131.69840           133.21840           114.84420           132.34660           150.85460           169.33040           141.01840           120.22360           110.50670           113.90130           101.21970           100.21720            99.37978           104.86500            93.96345            95.29652            99.64720           111.66950           160.20280           188.92560           151.19230           157.57320           108.58620           127.31300           147.64120           143.15600           158.11280           210.38360           175.92490           139.47040           116.15470           119.17130           128.97120           128.07410           132.95210           142.71710           139.62320           135.69990           127.14810           121.34570           115.83710           105.03560           103.32660           116.07020           125.64440           130.07830           146.19080           130.60440           125.34320           143.05310           160.54200           151.82440           158.95190           161.05130           123.51880           140.27860           136.95170           134.79570           139.36660           120.27510           136.82750           122.70740           108.07910           136.95660           160.73170           153.24370           138.77600           125.19240           105.77540           115.98770           101.54910           104.00190            96.51332            93.18347            93.76122            89.51419            99.03434           106.04030           163.44530           197.18070           166.07580           137.66870           110.10200           129.95090           136.61370           158.09110           159.33040           207.41600           160.85030           131.30800           123.01570           121.08890           120.42690           119.65110           131.24680           140.99810           140.77270           131.88660           124.94110           120.74970           111.64840           111.64830           120.54080           137.66570           147.91580           152.84670           136.89830           126.16390           140.52640           153.99490           159.93420           179.12230           158.55590           145.38840           126.40680           134.38540           141.66830           160.40180           144.68670           134.79020           121.25600           141.68050           122.30760           133.60080           150.22020           141.73900           129.72570           114.39970           104.10830           117.04000            93.98452            91.19988           105.82810            98.76726            93.95127            96.25092            91.37671           114.45100           144.86140           217.66480           159.78060           122.43910           126.03900           121.67760           128.54090           150.94750           149.54530           186.88610           180.08490           132.42620           127.36240           119.62360           125.42130           126.47210           125.88970           128.29290           127.23990           129.55480           122.82580           108.71190           115.71940           111.66080           127.32360           149.78970           166.03740           149.14700           134.53480           135.61500           154.93450           160.17700           181.49310           178.88250           175.10830           133.81850           128.94760           145.38810           134.55250           151.01880           142.25450           132.44980           135.36730           142.03450           131.96060           151.14940           139.05800           133.97940           125.16640           115.37050           111.02230           117.66640            96.35938            93.32685           106.29180            94.03169            89.76659            94.32994            97.64247            99.04778           155.03880           200.24920           158.95770           130.09850           137.09940           126.35870           123.67330           138.54620           179.86730           184.83590           155.10290           126.13490           126.92970           127.97740           130.18840           125.88420           131.19220           129.47450           119.34950           122.96620           114.92960           111.77330           114.78740           114.65830           126.27100           135.12830           156.95730           154.57880           143.99190           138.93600           152.52820           156.88920           161.13460           169.88610           160.78380           148.84500           144.04470           135.21700           145.86780           146.17140           147.31750           145.46530           148.26550           143.56130           148.85150           162.31220           128.77390           135.21160           122.19140           110.82100           118.01990           105.42080           103.81880           100.11250           105.14960            93.47097            89.89191            93.97333            95.61040           106.81480           153.25250           184.47140           160.40480           141.21940           130.69590           133.22140           124.44720           138.82810           179.72220           155.20890           184.54230           116.94160           120.10890           127.61570           128.71220           125.02680           127.24560           124.13130           119.36500           116.63450           112.51220           113.94700           114.06770           113.62050           120.70700           135.71900           161.69210           160.40430           158.29810           150.43800           168.20550           165.00330           172.55170           172.21400           156.72320           142.82400           156.99350           124.46320           138.07570           142.61520           166.79190           150.69980           169.77700           150.04260           152.02470           139.82010           144.91540           127.56170           121.06270           105.00670           108.53740            97.75253           109.08080           105.90500           110.76480            95.07635            84.83012           103.76180            89.67083           109.02560           172.75710           181.87340           163.05380           136.95180           130.34900           135.29740           126.26630           130.33320           155.98430           166.36780           181.56110           114.02760           113.16080           117.58470           124.23360           139.31160           136.97780           132.21500           122.93220           120.29140           122.39360           116.85440           115.18330           115.39940           123.69130           135.26720           136.95380           150.77570           150.41950           156.52460           166.63850           160.70560           172.86570           150.24900           152.53380           151.70920           153.81020           134.79390           133.68250           143.31590           167.15070           151.88920           164.78550           156.21900           135.31020           152.97790           123.17570           122.29100           113.82040           103.92400           102.62910            98.29302           101.69460           100.99280           104.78270            96.03907           103.23290           109.26830            93.45823           107.75250           179.53020           162.84280           158.14250           134.09040           122.55910           127.34000           120.84080           135.68100           142.90720           145.76370           184.85590           113.49660           116.56890           120.11620           122.95920           128.97780           127.71590           132.94230           130.48720           114.56860           106.17270           104.80640           119.46570           125.16930           118.24900           129.93060           148.33760           155.72900           164.04670           144.96770           180.48270           175.55780           159.78720           161.86050           194.90750           161.39690           148.28130           143.11690           129.73020           146.38160           163.18870           157.26870           178.26210           162.55280           151.32060           148.46700           131.15730           114.15690           128.21100           105.14420            90.94768            99.01610            96.67688           108.40500           104.35350            95.26384            95.27497           108.95750            94.72980           114.26210           144.82340           163.17110           153.51850           137.18130           119.29860           131.28740           123.51100           148.05330           134.69730           140.37200           165.63170           114.23300           113.39790           113.99680           127.75470           136.76190           134.66960           130.01620           128.49850           117.05640           105.93240           105.90810           120.09050           128.01920           130.84430           133.94860           143.84810           149.80820           175.46520           162.21740           188.25980           184.91380           168.31430           180.21350           209.62250           172.32620           156.42650           142.31660           141.78870           150.28650           160.95860           153.58310           153.39930           150.81100           150.47890           175.21080           127.08410           116.67540           126.09180            97.68673            82.40396            94.83352            95.47178           105.75300           111.12290            96.61908            94.47094           104.64840            94.58041           115.14410           149.29250           139.51880           141.19820           158.16080           128.30030           130.13310           111.17600           129.94940           143.66550           145.51130           181.96570           117.06140           114.18460           118.08490           125.63030           125.77920           125.68830           130.50130           138.06370           125.86510           109.03850           117.22950           119.98520           121.44670           142.56240           139.84130           131.44350           153.14900           193.16950           197.18270           176.80600           157.10030           156.26110           204.19480           188.86900           182.02480           163.39350           147.88230           149.78680           166.40540           164.80820           162.49290           153.34660           157.58250           140.20330           139.69870           122.09810           115.69810           118.46100           109.34710            81.63122            91.30180            90.88392            98.57020           114.58720           101.72180            96.57268           102.98660            90.78569           119.37030           135.17370           133.03050           139.83840           160.99890           148.86360           114.79570           120.69590           128.91360           130.35270           147.13420           151.53210           109.43970           118.19710           132.65280           137.47100           134.21790           131.97130           130.88640           127.19900           118.03460           124.02540           117.33390           118.73420           138.88990           146.71090           135.03490           130.18780           163.95490           173.35480           213.66450           177.99690           160.32530           166.11890           211.68390           210.10640           189.17050           184.68670           201.23530           175.91040           202.27440           166.47760           174.39510           145.40640           145.15350           160.29480           130.44960           117.63140           117.36090           120.73980            99.11913            87.54140            91.25197            94.87104            93.86966           105.90690           103.47600           100.23590            96.11975            99.06847           106.75310           142.22770           124.25780           139.25060           156.08790           139.11580           124.08530           127.39300           134.19150           131.28280           143.02450           161.22050            99.32706           111.34240           123.24750           143.15670           142.59280           127.38690           126.92460           133.30270           131.73530           123.06950           127.72850           134.13460           142.73980           146.86740           141.51380           139.37050           169.63560           185.60970           186.89040           171.91260           171.26280           170.54490           175.41630           170.61430           198.62870           182.59150           215.73560           216.88300           188.42380           168.01490           171.02120           160.38700           168.70800           141.06460           132.39070           109.75710           121.69830           114.70600            99.74088            86.83088            92.21009            93.51629            92.57079           109.30720           106.91970           103.40060            99.59766           107.31660           104.47830           137.86430           137.66630           146.21250           152.39310           133.86460           124.59660           120.44670           130.43330           135.73240           137.06800           137.17370           105.49500           110.02330           113.95470           123.73350           143.60990           139.10040           120.68060           124.82310           127.45140           132.95790           138.65780           135.81280           149.07900           140.43820           144.27910           152.53060           176.25010           159.84570           169.71240           156.54140           205.15800           184.31450           161.67070           187.97200           225.77570           211.07210           228.21920           201.39290           209.01350           191.99710           179.93360           183.52510           175.76690           146.98430           127.50170           106.98040           107.81130           112.50760           103.60900            91.86160            93.24148            90.96108            90.45264           104.36400           105.64980           105.11720           111.32180           104.15180           111.01610           138.39240           151.44430           162.00900           157.02520           150.64940           109.76950           120.14190           127.89670           137.04480           141.37760           131.40210           100.65650           108.56300           116.66790           129.92840           136.36030           128.49180           120.46420           125.47870           137.67240           135.15790           141.57610           152.53040           147.30080           139.41370           157.21820           172.66100           169.79140           170.70210           190.61490           173.13590           182.52190           174.59060           169.28980           197.55660           246.07650           237.59580           198.96250           200.38470           176.03750           176.83400           179.12130           181.65080           164.68420           140.89550           114.20160           104.64150           108.63600           101.34140           109.59450            87.36160            89.82143            89.49257            92.66692           104.52250           110.33150           100.19530           130.92900           112.49470           118.54910           118.43930           137.74730           165.69710           140.04650           134.49320           105.72280           127.64260           120.05230           158.16590           132.55210           139.98110           109.88460           103.33350           118.10310           124.22050           137.85670           142.06010           143.37300           151.12340           156.13900           148.75270           138.51710           131.56190           140.66670           146.68660           160.42250           155.01060           163.06160           177.66010           174.83480           171.75350           197.40330           189.17150           178.86430           250.01410           232.27710           236.56430           220.93880           203.91780           186.55200           196.35060           212.95090           163.42600           162.08930           146.27940           116.76810           107.00480           104.42450           100.90450           109.52870            91.63652            94.09901            87.99523            87.19053           102.15760           104.66440            98.87678           132.12360           120.39050           112.73940           131.33040           141.49770           167.20070           151.94900           123.26960           109.29240           134.49170           122.10350           142.13930           131.41250           140.78960           111.52960           110.78040           127.12330           127.75210           133.42590           147.62780           160.59660           163.27210           156.19160           148.35480           141.42790           136.78970           136.53540           137.65050           131.79100           140.19510           155.53280           163.50900           165.79870           169.05810           189.59270           224.43650           228.72200           220.36650           245.64600           206.14990           200.28740           200.39700           209.81570           197.27060           217.91720           148.80990           163.45140           146.39050           114.422