# vtk DataFile Version 3.0
Output from R2
ASCII
DATASET UNSTRUCTURED_GRID
POINTS      18361 double
    -0.40100     0.06900   0.
    -0.40100    -0.06900   0.
    -0.40100    -0.20900   0.
    -0.40100    -0.35300   0.
    -0.40100    -0.50100   0.
    -0.40100    -0.65400   0.
    -0.40100    -0.81000   0.
    -0.40100    -0.97100   0.
    -0.40100    -1.13600   0.
    -0.40100    -1.30500   0.
    -0.40100    -1.48000   0.
    -0.40100    -1.65900   0.
    -0.40100    -1.84300   0.
    -0.40100    -2.03200   0.
    -0.40100    -2.22700   0.
    -0.40100    -2.42700   0.
    -0.40100    -2.63200   0.
    -0.40100    -2.84300   0.
    -0.40100    -3.06000   0.
    -0.40100    -3.28300   0.
    -0.40100    -3.51200   0.
    -0.40100    -3.74700   0.
    -0.40100    -3.98900   0.
    -0.40100    -4.23800   0.
    -0.40100    -4.49300   0.
    -0.40100    -4.75600   0.
    -0.40100    -5.02600   0.
    -0.40100    -5.30300   0.
    -0.40100    -5.58800   0.
    -0.40100    -5.88000   0.
    -0.40100    -6.18100   0.
    -0.40100    -6.49100   0.
    -0.40100    -6.80800   0.
    -0.40100    -7.13500   0.
    -0.40100    -7.47000   0.
    -0.40100    -7.81500   0.
    -0.40100    -8.17000   0.
    -0.40100    -8.53400   0.
    -0.40100    -8.90800   0.
    -0.40100    -9.29300   0.
    -0.40100    -9.68800   0.
    -0.40100   -10.09400   0.
    -0.40100   -10.51200   0.
    -0.40100   -10.94100   0.
    -0.40100   -11.38100   0.
    -0.40100   -11.83400   0.
    -0.40100   -12.30000   0.
    -0.40100   -12.77800   0.
    -0.40100   -13.27000   0.
    -0.40100   -13.77500   0.
    -0.40100   -14.29500   0.
    -0.40100   -14.82800   0.
    -0.40100   -15.37600   0.
    -0.40100   -15.94000   0.
    -0.40100   -16.51900   0.
    -0.40100   -17.11400   0.
    -0.40100   -17.72600   0.
    -0.40100   -18.35400   0.
    -0.40100   -19.00000   0.
    -0.40100   -19.66400   0.
    -0.40100   -20.33600   0.
     0.40100     0.06900   0.
     0.40100    -0.06900   0.
     0.40100    -0.20900   0.
     0.40100    -0.35300   0.
     0.40100    -0.50100   0.
     0.40100    -0.65400   0.
     0.40100    -0.81000   0.
     0.40100    -0.97100   0.
     0.40100    -1.13600   0.
     0.40100    -1.30500   0.
     0.40100    -1.48000   0.
     0.40100    -1.65900   0.
     0.40100    -1.84300   0.
     0.40100    -2.03200   0.
     0.40100    -2.22700   0.
     0.40100    -2.42700   0.
     0.40100    -2.63200   0.
     0.40100    -2.84300   0.
     0.40100    -3.06000   0.
     0.40100    -3.28300   0.
     0.40100    -3.51200   0.
     0.40100    -3.74700   0.
     0.40100    -3.98900   0.
     0.40100    -4.23800   0.
     0.40100    -4.49300   0.
     0.40100    -4.75600   0.
     0.40100    -5.02600   0.
     0.40100    -5.30300   0.
     0.40100    -5.58800   0.
     0.40100    -5.88000   0.
     0.40100    -6.18100   0.
     0.40100    -6.49100   0.
     0.40100    -6.80800   0.
     0.40100    -7.13500   0.
     0.40100    -7.47000   0.
     0.40100    -7.81500   0.
     0.40100    -8.17000   0.
     0.40100    -8.53400   0.
     0.40100    -8.90800   0.
     0.40100    -9.29300   0.
     0.40100    -9.68800   0.
     0.40100   -10.09400   0.
     0.40100   -10.51200   0.
     0.40100   -10.94100   0.
     0.40100   -11.38100   0.
     0.40100   -11.83400   0.
     0.40100   -12.30000   0.
     0.40100   -12.77800   0.
     0.40100   -13.27000   0.
     0.40100   -13.77500   0.
     0.40100   -14.29500   0.
     0.40100   -14.82800   0.
     0.40100   -15.37600   0.
     0.40100   -15.94000   0.
     0.40100   -16.51900   0.
     0.40100   -17.11400   0.
     0.40100   -17.72600   0.
     0.40100   -18.35400   0.
     0.40100   -19.00000   0.
     0.40100   -19.66400   0.
     0.40100   -20.33600   0.
     1.20400     0.06900   0.
     1.20400    -0.06900   0.
     1.20400    -0.20900   0.
     1.20400    -0.35300   0.
     1.20400    -0.50100   0.
     1.20400    -0.65400   0.
     1.20400    -0.81000   0.
     1.20400    -0.97100   0.
     1.20400    -1.13600   0.
     1.20400    -1.30500   0.
     1.20400    -1.48000   0.
     1.20400    -1.65900   0.
     1.20400    -1.84300   0.
     1.20400    -2.03200   0.
     1.20400    -2.22700   0.
     1.20400    -2.42700   0.
     1.20400    -2.63200   0.
     1.20400    -2.84300   0.
     1.20400    -3.06000   0.
     1.20400    -3.28300   0.
     1.20400    -3.51200   0.
     1.20400    -3.74700   0.
     1.20400    -3.98900   0.
     1.20400    -4.23800   0.
     1.20400    -4.49300   0.
     1.20400    -4.75600   0.
     1.20400    -5.02600   0.
     1.20400    -5.30300   0.
     1.20400    -5.58800   0.
     1.20400    -5.88000   0.
     1.20400    -6.18100   0.
     1.20400    -6.49100   0.
     1.20400    -6.80800   0.
     1.20400    -7.13500   0.
     1.20400    -7.47000   0.
     1.20400    -7.81500   0.
     1.20400    -8.17000   0.
     1.20400    -8.53400   0.
     1.20400    -8.90800   0.
     1.20400    -9.29300   0.
     1.20400    -9.68800   0.
     1.20400   -10.09400   0.
     1.20400   -10.51200   0.
     1.20400   -10.94100   0.
     1.20400   -11.38100   0.
     1.20400   -11.83400   0.
     1.20400   -12.30000   0.
     1.20400   -12.77800   0.
     1.20400   -13.27000   0.
     1.20400   -13.77500   0.
     1.20400   -14.29500   0.
     1.20400   -14.82800   0.
     1.20400   -15.37600   0.
     1.20400   -15.94000   0.
     1.20400   -16.51900   0.
     1.20400   -17.11400   0.
     1.20400   -17.72600   0.
     1.20400   -18.35400   0.
     1.20400   -19.00000   0.
     1.20400   -19.66400   0.
     1.20400   -20.33600   0.
     2.00700     0.06900   0.
     2.00700    -0.06900   0.
     2.00700    -0.20900   0.
     2.00700    -0.35300   0.
     2.00700    -0.50100   0.
     2.00700    -0.65400   0.
     2.00700    -0.81000   0.
     2.00700    -0.97100   0.
     2.00700    -1.13600   0.
     2.00700    -1.30500   0.
     2.00700    -1.48000   0.
     2.00700    -1.65900   0.
     2.00700    -1.84300   0.
     2.00700    -2.03200   0.
     2.00700    -2.22700   0.
     2.00700    -2.42700   0.
     2.00700    -2.63200   0.
     2.00700    -2.84300   0.
     2.00700    -3.06000   0.
     2.00700    -3.28300   0.
     2.00700    -3.51200   0.
     2.00700    -3.74700   0.
     2.00700    -3.98900   0.
     2.00700    -4.23800   0.
     2.00700    -4.49300   0.
     2.00700    -4.75600   0.
     2.00700    -5.02600   0.
     2.00700    -5.30300   0.
     2.00700    -5.58800   0.
     2.00700    -5.88000   0.
     2.00700    -6.18100   0.
     2.00700    -6.49100   0.
     2.00700    -6.80800   0.
     2.00700    -7.13500   0.
     2.00700    -7.47000   0.
     2.00700    -7.81500   0.
     2.00700    -8.17000   0.
     2.00700    -8.53400   0.
     2.00700    -8.90800   0.
     2.00700    -9.29300   0.
     2.00700    -9.68800   0.
     2.00700   -10.09400   0.
     2.00700   -10.51200   0.
     2.00700   -10.94100   0.
     2.00700   -11.38100   0.
     2.00700   -11.83400   0.
     2.00700   -12.30000   0.
     2.00700   -12.77800   0.
     2.00700   -13.27000   0.
     2.00700   -13.77500   0.
     2.00700   -14.29500   0.
     2.00700   -14.82800   0.
     2.00700   -15.37600   0.
     2.00700   -15.94000   0.
     2.00700   -16.51900   0.
     2.00700   -17.11400   0.
     2.00700   -17.72600   0.
     2.00700   -18.35400   0.
     2.00700   -19.00000   0.
     2.00700   -19.66400   0.
     2.00700   -20.33600   0.
     2.80900     0.06900   0.
     2.80900    -0.06900   0.
     2.80900    -0.20900   0.
     2.80900    -0.35300   0.
     2.80900    -0.50100   0.
     2.80900    -0.65400   0.
     2.80900    -0.81000   0.
     2.80900    -0.97100   0.
     2.80900    -1.13600   0.
     2.80900    -1.30500   0.
     2.80900    -1.48000   0.
     2.80900    -1.65900   0.
     2.80900    -1.84300   0.
     2.80900    -2.03200   0.
     2.80900    -2.22700   0.
     2.80900    -2.42700   0.
     2.80900    -2.63200   0.
     2.80900    -2.84300   0.
     2.80900    -3.06000   0.
     2.80900    -3.28300   0.
     2.80900    -3.51200   0.
     2.80900    -3.74700   0.
     2.80900    -3.98900   0.
     2.80900    -4.23800   0.
     2.80900    -4.49300   0.
     2.80900    -4.75600   0.
     2.80900    -5.02600   0.
     2.80900    -5.30300   0.
     2.80900    -5.58800   0.
     2.80900    -5.88000   0.
     2.80900    -6.18100   0.
     2.80900    -6.49100   0.
     2.80900    -6.80800   0.
     2.80900    -7.13500   0.
     2.80900    -7.47000   0.
     2.80900    -7.81500   0.
     2.80900    -8.17000   0.
     2.80900    -8.53400   0.
     2.80900    -8.90800   0.
     2.80900    -9.29300   0.
     2.80900    -9.68800   0.
     2.80900   -10.09400   0.
     2.80900   -10.51200   0.
     2.80900   -10.94100   0.
     2.80900   -11.38100   0.
     2.80900   -11.83400   0.
     2.80900   -12.30000   0.
     2.80900   -12.77800   0.
     2.80900   -13.27000   0.
     2.80900   -13.77500   0.
     2.80900   -14.29500   0.
     2.80900   -14.82800   0.
     2.80900   -15.37600   0.
     2.80900   -15.94000   0.
     2.80900   -16.51900   0.
     2.80900   -17.11400   0.
     2.80900   -17.72600   0.
     2.80900   -18.35400   0.
     2.80900   -19.00000   0.
     2.80900   -19.66400   0.
     2.80900   -20.33600   0.
     3.61200     0.06900   0.
     3.61200    -0.06900   0.
     3.61200    -0.20900   0.
     3.61200    -0.35300   0.
     3.61200    -0.50100   0.
     3.61200    -0.65400   0.
     3.61200    -0.81000   0.
     3.61200    -0.97100   0.
     3.61200    -1.13600   0.
     3.61200    -1.30500   0.
     3.61200    -1.48000   0.
     3.61200    -1.65900   0.
     3.61200    -1.84300   0.
     3.61200    -2.03200   0.
[...]
POINT_DATA     18361
CELL_DATA     18000
SCALARS Resistivity(Ohm-m) double 1
LOOKUP_TABLE default
            98.34345           100.85170           103.42920            98.66731            91.62483            88.39346            86.96429            86.20845            85.74114            88.80740            92.82132            99.23489           104.16040           105.72980           102.26240            97.16002            96.46205            96.71741            97.09497            95.71856            96.58859            98.59208           101.13230           103.09260            96.79598            92.77168            92.83378            95.34458           100.12680           105.36440           102.84930            99.86017           105.13670           118.45610           116.53670           123.94180           128.92770           122.45490           123.40940           119.84710           108.74130           112.36610           109.42870           101.40130           106.76030           109.97920           111.80860            98.22353           110.20070           132.60970           138.06990           126.39680           138.46730           121.03880           124.64130           117.01690           115.40550           122.98920           119.30140           109.26070            96.11248            96.12175            96.13128            95.80328            95.36827            94.21379            92.69335            90.60056            88.21971            90.83330            94.70041           100.36990           104.98690           107.19570           106.58590           104.52620           101.38020           101.54700           102.05980            96.17402            95.60971            97.03410            99.28404           101.42230            96.28758            97.97850            96.26378            94.58641            99.13724           104.63300           105.87210           104.06430           104.44730           108.53830           113.37100           123.68950           126.62840           123.44700           130.69930           139.20740           119.98790           114.19620           109.48500           104.52760           104.36230           106.52840           101.62660            98.98086           110.77120           135.80990           130.49010           134.09410           140.09600           117.18090           113.92480           122.19400           113.69120           111.84630           112.34050           104.67330            92.25718            91.79451            91.31905            93.00397            95.36575            94.33028            91.63117            90.50365            90.05952            93.58389            98.05371           101.42700           103.88720           104.30480           106.69550           108.59020           101.34370            98.96870            99.25735            98.88518            99.58343            98.20624            94.77506            93.28762            95.34816            98.79572            98.03131            97.07766           101.32070           104.39480           101.58910           106.52920           108.97470           113.39830           125.04810           126.26750           126.79760           133.83420           138.24550           132.26670           115.71990           117.52640           120.17110           103.10370           102.22950            98.87378            96.99173           105.08680           117.26230           125.15400           133.13200           136.21710           139.48800           115.44400           105.42140           113.90270           105.63050           107.65150           118.39920           108.76880            87.58848            89.57758            91.62169            93.88062            96.24792            95.13806            92.32469            90.82725            89.89338            92.64089            96.22402            97.82520            98.25575            96.15046            96.48216            98.39529           103.37930           105.99880           106.17120           101.97680           102.46660           100.74970            96.24915            94.94911            99.53986           100.27120            97.87705            98.80383           106.17050           113.55770           116.71400           116.56110           111.57190           116.06650           119.79280           125.99700           134.10990           122.40080           140.91920           145.55760           126.84030           115.34800           101.77550           102.17510           107.52100           104.36240           103.61680           101.54180           112.55890           124.76460           139.99080           134.29040           137.27910           112.60750           109.62320           105.04420           112.83140           109.30210           127.55600           107.27580            88.09492            89.39611            90.73329            90.63862            90.11541            90.29400            90.81575            92.31454            94.27262            93.10900            91.36825            94.68812            97.44457            98.90323            99.90663           101.19320           105.56770           104.47420           100.76730            99.39527           104.00280           104.12940            98.62926            96.17696            97.83935            97.26890           100.97380           104.90520           105.69440           108.25680           111.81820           115.94500           115.76790           114.32390           124.96390           125.86320           129.81050           124.70040           134.71260           155.38370           123.50140           109.47990           113.73480           108.50230           113.78480           108.79390            97.26321            99.16917           119.91240           125.58730           142.16320           134.22660           132.36180           109.38000           100.20170           112.18190           107.22210           116.87260           117.79990           103.62700            84.21074            90.32374            96.60580            99.72724           101.96820            98.66005            92.61099            89.19044            86.88887            88.34471            90.82835            97.66503           104.53810           111.28120           112.50850           112.11150           117.25220           116.15350           110.47100           100.98650            98.16137            96.92425            96.43931            98.67581           105.55940           105.20330           103.32430           105.14640           110.45460           113.66980           111.91890           112.20600           119.19310           119.91350           126.18190           137.20540           136.86780           131.10610           138.89570           151.32310           121.33120           114.71280           121.92240           111.20060           120.99690           109.74450            99.05617           102.25800           115.33060           125.83670           133.49630           144.40870           130.27130           115.11100           102.62230           109.12210           108.56780           112.63000           110.30630           104.41870            92.97494            92.27923            91.56429            92.68184            94.36739            93.50915            91.40401            91.14889            91.71504            94.52457            97.86418            99.91644           103.37020           109.73930           111.75570           111.72820           111.07160           111.20200           110.96880           107.41530           108.39380           108.14810           105.80430           104.92810           105.22140           106.01110           105.54680           104.88230           107.32200           114.38010           122.59460           123.37060           115.43070           120.21860           126.39960           142.75800           139.95300           140.36240           146.14910           139.80870           132.83630           132.59330           130.45010           113.31060           109.32410           112.48530           104.62920           105.44480           121.23500           122.06600           127.79300           133.65820           126.54240           106.44580           100.98670            99.87007           110.31760           108.83520           113.08800           101.19910            92.92774            96.36755            99.90248            99.22926            97.28885            93.89691            89.75111            89.18297            90.20186            92.83909            95.94910           100.57810           105.55130           111.11510           111.69970           110.65300           113.57750           113.82130           112.21310           109.43130           110.23200           108.36010           104.48120           107.96830           110.79500           109.94740           108.59000           109.33580           112.37310           117.06770           120.03130           111.52430           107.21870           117.64300           126.90340           138.18390           138.35570           138.72080           150.80950           135.99160           140.60070           130.78880           127.53180           117.72840           109.82520           105.72110           103.27410           104.64540           112.75310           133.58710           128.81820           130.29130           129.88110           107.65930            95.21201           104.03870           110.01200           106.94930           105.89280           105.03130            91.88268            94.55127            97.29365            99.35050           101.24340           102.41220           103.24660           101.19780            97.83074            98.23223            99.64290           105.42360           108.87170           107.18850           105.78280           105.63390           112.89370           117.53880           119.40660           116.12530           113.75340           109.82550           105.29360           106.15200           109.89400           109.63990           111.95130           118.47550           122.85260           122.49380           124.73310           122.09270           123.59060           128.69220           128.10990           130.01350           126.22050           142.97940           160.38480           140.64600           144.91030           138.03330           127.71270           120.50270           110.93370           108.01510            99.61807           101.45740           115.79170           126.15680           132.64790           131.03220           126.64800           107.97930           100.31930            98.00441           104.85790            96.35078           109.34680            86.79080            90.36588            95.80336           101.39120           104.02780           105.83680           106.46300           106.52440           102.96510            97.73485            97.90929            99.46394           105.43540           108.98480           107.20670           107.71930           110.30430           119.54710           122.23010           121.03420           119.55980           117.35590           114.98620           112.41360           108.98850           112.31290           109.21340           106.78040           109.18610           111.99020           113.41100           118.94820           115.42320           120.76280           122.69830           122.31520           129.23230           130.41880           149.32620           160.21240           151.81040           145.57710           128.27740           120.60550           120.18830           116.85600           106.26200            99.30558           101.26220           113.75880           122.64610           136.82560           137.96240           123.29100           117.11210           100.97060            99.43899           112.00350            95.33917           101.62190            95.41761            93.25896            92.72749            92.18133            92.51803            93.12443            95.63522            99.10679           101.92830           104.50390           103.33550           101.39560           102.88160           104.66520           107.03600           107.79260           108.40800           112.77420           118.72420           124.01090           122.77690           114.89930           109.99920           110.19350           111.18200           112.44030           107.03790           104.56030           109.32640           114.50940           115.66480           119.48480           116.09510           121.58600           127.66530           130.48910           135.72080           138.98070           155.26090           150.67310           140.76940           140.41170           135.80670           131.67000           124.26330           119.18370           108.05640           101.96030           104.61340           118.91490           117.13720           118.57350           140.06420           124.97550           110.48720           104.37160            98.09980           103.67360            91.85227           100.66220           100.45160            90.75604            90.32627            89.88461            93.43369            98.24165           101.97120           105.23190           104.56490           102.13550           100.23930            98.57269           101.52120           104.44970           107.24630           112.52800           118.63510           122.43400           123.31460           122.43910           121.32370           117.79550           116.36230           118.51500           123.54920           114.28890           109.09380           107.30670           106.03910           106.57380           114.58610           126.64850           133.00530           138.22090           136.66730           133.06610           133.63750           134.39110           150.33020           151.87980           146.54200           148.10230           131.21400           131.36830           113.46530           114.52630           115.24690           105.05890           100.70900           116.04410           116.97440           120.43250           135.30170           114.55460           122.48760           115.45280           104.95340           111.79430            93.88953            95.01269           101.96510            90.38920            92.24796            94.15813            94.26707            93.84140            96.24686           100.06120           100.28680            98.91501            96.99138            95.07547            98.61940           103.09530           109.44400           111.80870           113.48000           122.14340           130.70250           136.03820           128.44190           126.72330           126.07520           124.26260           118.82060           119.99570           113.69480           107.86300           105.56200           106.65730           114.35480           126.23700           129.29260           135.29860           138.09500           141.76590           136.74510           148.49910           160.64200           155.13070           139.35500           134.65080           120.24440           122.71060           120.65890           136.24290           117.54900           105.17910           102.76540           119.81520           118.17500           115.01280           131.76500           120.96910           124.29690           108.75700           106.53000           111.16360            92.09683            95.55911            95.10463            86.21638            86.05581            85.89080            89.83336            95.07734            98.21225           100.36950            99.33027            96.84889            97.02021            97.76069            97.20789            98.87024           105.25590           112.41220           119.66130           124.74570           129.45020           133.11590           133.38930           130.85540           124.79040           117.30710           116.93700           118.43450           120.66960           119.47700           113.97560           112.68180           117.94690           119.19940           135.80830           144.17350           137.54200           126.39150           127.68550           145.74010           161.18240           167.43760           146.92970           139.06380           131.39710           124.86560           123.36380           120.49790           115.09370           113.09490           102.41340           118.55320           113.71860           111.34330           136.24860           121.45580           126.76370           113.68420           108.18510           102.94680            94.45143            92.05549            96.48086            94.76417            95.19312            95.63394            94.25239            92.30067            94.44252            98.60204           103.91300           109.82060           109.60200           107.84670           101.97460            99.04593           102.54920           109.37420           117.80430           126.40930           132.87500           136.10100           131.15580           128.73650           121.99080           112.48260           113.54110           121.80290           121.56640           117.08790           113.31560           116.23610           123.50470           125.25020           138.99310           149.38830           133.92480           121.66630           131.03570           137.94160           155.71090           169.44680           143.23380           134.68830           123.84280           133.97540           131.88060           119.04250           114.56120           106.25310            97.70829           115.51170           109.11500           114.51920           133.92340           134.01550           135.83460           112.66800           109.99120           101.75030            99.24400            92.79234            99.02196            91.10347            90.35796            89.59184            90.53983            92.01723            93.33448            94.59324            98.86269           104.54200           106.04250           106.63260           107.68070           108.09500           107.13070           110.06520           115.21860           123.10230           125.95050           126.40100           128.96220           126.33430           118.25800           108.23000           109.28950           117.46000           121.44900           121.72960           118.20400           117.23890           127.81710           142.56900           149.43040           143.02880           135.82690           136.01020           138.05960           146.08520           159.93380           174.86410           146.01810           128.39430           128.88710           131.22790           122.01070           107.59360           112.55930           106.28280           105.30630           106.21950           107.77670           109.58710           125.71120           126.85110           138.00000           117.28360           110.92870           102.62250            96.02031            93.13776            89.96542            90.61204            89.54764            88.45381            90.77711            94.16429            95.32083            95.41182            98.09998           101.98870           102.85340           102.89900            98.38182            96.13991            98.86929           106.64520           115.86030           119.06800           123.21710           128.66300           137.04590           129.95310           119.93630           112.48660           112.90900           120.07890           123.10220           121.10680           114.56460           112.88020           127.12720           140.78250           141.36600           160.58660           155.97320           137.993