# vtk DataFile Version 3.0
Output from R2
ASCII
DATASET UNSTRUCTURED_GRID
POINTS      18361 double
    -0.50200     0.06900   0.
    -0.50200    -0.06900   0.
    -0.50200    -0.20900   0.
    -0.50200    -0.35300   0.
    -0.50200    -0.50100   0.
    -0.50200    -0.65400   0.
    -0.50200    -0.81000   0.
    -0.50200    -0.97100   0.
    -0.50200    -1.13600   0.
    -0.50200    -1.30500   0.
    -0.50200    -1.48000   0.
    -0.50200    -1.65900   0.
    -0.50200    -1.84300   0.
    -0.50200    -2.03200   0.
    -0.50200    -2.22700   0.
    -0.50200    -2.42700   0.
    -0.50200    -2.63200   0.
    -0.50200    -2.84300   0.
    -0.50200    -3.06000   0.
    -0.50200    -3.28300   0.
    -0.50200    -3.51200   0.
    -0.50200    -3.74700   0.
    -0.50200    -3.98900   0.
    -0.50200    -4.23800   0.
    -0.50200    -4.49300   0.
    -0.50200    -4.75600   0.
    -0.50200    -5.02600   0.
    -0.50200    -5.30300   0.
    -0.50200    -5.58800   0.
    -0.50200    -5.88000   0.
    -0.50200    -6.18100   0.
    -0.50200    -6.49100   0.
    -0.50200    -6.80800   0.
    -0.50200    -7.13500   0.
    -0.50200    -7.47000   0.
    -0.50200    -7.81500   0.
    -0.50200    -8.17000   0.
    -0.50200    -8.53400   0.
    -0.50200    -8.90800   0.
    -0.50200    -9.29300   0.
    -0.50200    -9.68800   0.
    -0.50200   -10.09400   0.
    -0.50200   -10.51200   0.
    -0.50200   -10.94100   0.
    -0.50200   -11.38100   0.
    -0.50200   -11.83400   0.
    -0.50200   -12.30000   0.
    -0.50200   -12.77800   0.
    -0.50200   -13.27000   0.
    -0.50200   -13.77500   0.
    -0.50200   -14.29500   0.
    -0.50200   -14.82800   0.
    -0.50200   -15.37600   0.
    -0.50200   -15.94000   0.
    -0.50200   -16.51900   0.
    -0.50200   -17.11400   0.
    -0.50200   -17.72600   0.
    -0.50200   -18.35400   0.
    -0.50200   -19.00000   0.
    -0.50200   -19.66400   0.
    -0.50200   -20.33600   0.
     0.50200     0.06900   0.
     0.50200    -0.06900   0.
     0.50200    -0.20900   0.
     0.50200    -0.35300   0.
     0.50200    -0.50100   0.
     0.50200    -0.65400   0.
     0.50200    -0.81000   0.
     0.50200    -0.97100   0.
     0.50200    -1.13600   0.
     0.50200    -1.30500   0.
     0.50200    -1.48000   0.
     0.50200    -1.65900   0.
     0.50200    -1.84300   0.
     0.50200    -2.03200   0.
     0.50200    -2.22700   0.
     0.50200    -2.42700   0.
     0.50200    -2.63200   0.
     0.50200    -2.84300   0.
     0.50200    -3.06000   0.
     0.50200    -3.28300   0.
     0.50200    -3.51200   0.
     0.50200    -3.74700   0.
     0.50200    -3.98900   0.
     0.50200    -4.23800   0.
     0.50200    -4.49300   0.
     0.50200    -4.75600   0.
     0.50200    -5.02600   0.
     0.50200    -5.30300   0.
     0.50200    -5.58800   0.
     0.50200    -5.88000   0.
     0.50200    -6.18100   0.
     0.50200    -6.49100   0.
     0.50200    -6.80800   0.
     0.50200    -7.13500   0.
     0.50200    -7.47000   0.
     0.50200    -7.81500   0.
     0.50200    -8.17000   0.
     0.50200    -8.53400   0.
     0.50200    -8.90800   0.
     0.50200    -9.29300   0.
     0.50200    -9.68800   0.
     0.50200   -10.09400   0.
     0.50200   -10.51200   0.
     0.50200   -10.94100   0.
     0.50200   -11.38100   0.
     0.50200   -11.83400   0.
     0.50200   -12.30000   0.
     0.50200   -12.77800   0.
     0.50200   -13.27000   0.
     0.50200   -13.77500   0.
     0.50200   -14.29500   0.
     0.50200   -14.82800   0.
     0.50200   -15.37600   0.
     0.50200   -15.94000   0.
     0.50200   -16.51900   0.
     0.50200   -17.11400   0.
     0.50200   -17.72600   0.
     0.50200   -18.35400   0.
     0.50200   -19.00000   0.
     0.50200   -19.66400   0.
     0.50200   -20.33600   0.
     1.50500     0.06900   0.
     1.50500    -0.06900   0.
     1.50500    -0.20900   0.
     1.50500    -0.35300   0.
     1.50500    -0.50100   0.
     1.50500    -0.65400   0.
     1.50500    -0.81000   0.
     1.50500    -0.97100   0.
     1.50500    -1.13600   0.
     1.50500    -1.30500   0.
     1.50500    -1.48000   0.
     1.50500    -1.65900   0.
     1.50500    -1.84300   0.
     1.50500    -2.03200   0.
     1.50500    -2.22700   0.
     1.50500    -2.42700   0.
     1.50500    -2.63200   0.
     1.50500    -2.84300   0.
     1.50500    -3.06000   0.
     1.50500    -3.28300   0.
     1.50500    -3.51200   0.
     1.50500    -3.74700   0.
     1.50500    -3.98900   0.
     1.50500    -4.23800   0.
     1.50500    -4.49300   0.
     1.50500    -4.75600   0.
     1.50500    -5.02600   0.
     1.50500    -5.30300   0.
     1.50500    -5.58800   0.
     1.50500    -5.88000   0.
     1.50500    -6.18100   0.
     1.50500    -6.49100   0.
     1.50500    -6.80800   0.
     1.50500    -7.13500   0.
     1.50500    -7.47000   0.
     1.50500    -7.81500   0.
     1.50500    -8.17000   0.
     1.50500    -8.53400   0.
     1.50500    -8.90800   0.
     1.50500    -9.29300   0.
     1.50500    -9.68800   0.
     1.50500   -10.09400   0.
     1.50500   -10.51200   0.
     1.50500   -10.94100   0.
     1.50500   -11.38100   0.
     1.50500   -11.83400   0.
     1.50500   -12.30000   0.
     1.50500   -12.77800   0.
     1.50500   -13.27000   0.
     1.50500   -13.77500   0.
     1.50500   -14.29500   0.
     1.50500   -14.82800   0.
     1.50500   -15.37600   0.
     1.50500   -15.94000   0.
     1.50500   -16.51900   0.
     1.50500   -17.11400   0.
     1.50500   -17.72600   0.
     1.50500   -18.35400   0.
     1.50500   -19.00000   0.
     1.50500   -19.66400   0.
     1.50500   -20.33600   0.
     2.50800     0.06900   0.
     2.50800    -0.06900   0.
     2.50800    -0.20900   0.
     2.50800    -0.35300   0.
     2.50800    -0.50100   0.
     2.50800    -0.65400   0.
     2.50800    -0.81000   0.
     2.50800    -0.97100   0.
     2.50800    -1.13600   0.
     2.50800    -1.30500   0.
     2.50800    -1.48000   0.
     2.50800    -1.65900   0.
     2.50800    -1.84300   0.
     2.50800    -2.03200   0.
     2.50800    -2.22700   0.
     2.50800    -2.42700   0.
     2.50800    -2.63200   0.
     2.50800    -2.84300   0.
     2.50800    -3.06000   0.
     2.50800    -3.28300   0.
     2.50800    -3.51200   0.
     2.50800    -3.74700   0.
     2.50800    -3.98900   0.
     2.50800    -4.23800   0.
     2.50800    -4.49300   0.
     2.50800    -4.75600   0.
     2.50800    -5.02600   0.
     2.50800    -5.30300   0.
     2.50800    -5.58800   0.
     2.50800    -5.88000   0.
     2.50800    -6.18100   0.
     2.50800    -6.49100   0.
     2.50800    -6.80800   0.
     2.50800    -7.13500   0.
     2.50800    -7.47000   0.
     2.50800    -7.81500   0.
     2.50800    -8.17000   0.
     2.50800    -8.53400   0.
     2.50800    -8.90800   0.
     2.50800    -9.29300   0.
     2.50800    -9.68800   0.
     2.50800   -10.09400   0.
     2.50800   -10.51200   0.
     2.50800   -10.94100   0.
     2.50800   -11.38100   0.
     2.50800   -11.83400   0.
     2.50800   -12.30000   0.
     2.50800   -12.77800   0.
     2.50800   -13.27000   0.
     2.50800   -13.77500   0.
     2.50800   -14.29500   0.
     2.50800   -14.82800   0.
     2.50800   -15.37600   0.
     2.50800   -15.94000   0.
     2.50800   -16.51900   0.
     2.50800   -17.11400   0.
     2.50800   -17.72600   0.
     2.50800   -18.35400   0.
     2.50800   -19.00000   0.
     2.50800   -19.66400   0.
     2.50800   -20.33600   0.
     3.51200     0.06900   0.
     3.51200    -0.06900   0.
     3.51200    -0.20900   0.
     3.51200    -0.35300   0.
     3.51200    -0.50100   0.
     3.51200    -0.65400   0.
     3.51200    -0.81000   0.
     3.51200    -0.97100   0.
     3.51200    -1.13600   0.
     3.51200    -1.30500   0.
     3.51200    -1.48000   0.
     3.51200    -1.65900   0.
     3.51200    -1.84300   0.
     3.51200    -2.03200   0.
     3.51200    -2.22700   0.
     3.51200    -2.42700   0.
     3.51200    -2.63200   0.
     3.51200    -2.84300   0.
     3.51200    -3.06000   0.
     3.51200    -3.28300   0.
     3.51200    -3.51200   0.
     3.51200    -3.74700   0.
     3.51200    -3.98900   0.
     3.51200    -4.23800   0.
     3.51200    -4.49300   0.
     3.51200    -4.75600   0.
     3.51200    -5.02600   0.
     3.51200    -5.30300   0.
     3.51200    -5.58800   0.
     3.51200    -5.88000   0.
     3.51200    -6.18100   0.
     3.51200    -6.49100   0.
     3.51200    -6.80800   0.
     3.51200    -7.13500   0.
     3.51200    -7.47000   0.
     3.51200    -7.81500   0.
     3.51200    -8.17000   0.
     3.51200    -8.53400   0.
     3.51200    -8.90800   0.
     3.51200    -9.29300   0.
     3.51200    -9.68800   0.
     3.51200   -10.09400   0.
     3.51200   -10.51200   0.
     3.51200   -10.94100   0.
     3.51200   -11.38100   0.
     3.51200   -11.83400   0.
     3.51200   -12.30000   0.
     3.51200   -12.77800   0.
     3.51200   -13.27000   0.
     3.51200   -13.77500   0.
     3.51200   -14.29500   0.
     3.51200   -14.82800   0.
     3.51200   -15.37600   0.
     3.51200   -15.94000   0.
     3.51200   -16.51900   0.
     3.51200   -17.11400   0.
     3.51200   -17.72600   0.
     3.51200   -18.35400   0.
     3.51200   -19.00000   0.
     3.51200   -19.66400   0.
     3.51200   -20.33600   0.
     4.51500     0.06900   0.
     4.51500    -0.06900   0.
     4.51500    -0.20900   0.
     4.51500    -0.35300   0.
     4.51500    -0.50100   0.
     4.51500    -0.65400   0.
     4.51500    -0.81000   0.
     4.51500    -0.97100   0.
     4.51500    -1.13600   0.
     4.51500    -1.30500   0.
     4.51500    -1.48000   0.
     4.51500    -1.65900   0.
     4.51500    -1.84300   0.
     4.51500    -2.03200   0.
[...]
POINT_DATA     18361
CELL_DATA     18000
SCALARS Resistivity(Ohm-m) double 1
LOOKUP_TABLE default
           166.45340           166.32490           172.30780           167.66890           159.55110           149.82420           141.02270           153.63720           185.10500           171.18990           181.99520           198.64970           187.90220           199.20790           191.26950           178.39630           177.02980           179.12080           193.45320           199.90980           194.69110           185.02840           176.03490           183.54810           207.07110           180.19990           190.11840           234.58840           206.44320           202.42790           239.58300           237.49870           257.75720           310.53550           302.37350           415.61930           385.02440           279.21670           282.59660           238.38270           273.69540           322.81720           311.75500           324.57820           253.08820           279.34390           255.25360           254.30590           242.59320           226.52990           231.45300           243.27810           233.11580           211.99260           201.46730           148.88210           192.09750           192.70670           213.02860           176.18160           162.57160           162.60840           166.09600           156.88040           153.11160           157.38090           153.79350           158.94230           178.97990           174.49660           180.74600           196.82120           191.45000           186.47350           188.57590           172.97310           176.05820           192.70520           180.15080           198.31990           190.82030           179.41960           166.24570           178.59450           187.82770           199.57790           192.71590           207.95190           183.10640           204.36450           234.17620           238.58550           268.54480           316.79620           350.99920           445.39670           345.49640           318.50730           317.57550           259.43200           239.94370           294.09760           283.86520           273.62170           280.09890           290.80250           264.74640           260.14820           271.13040           220.65450           250.48750           241.07770           247.98490           212.45270           198.16890           153.23970           177.04920           182.03350           194.25210           181.74340           180.26850           164.26880           173.08100           166.84420           161.49620           161.82230           159.81060           154.93700           173.81410           168.19080           179.94390           195.49360           196.70680           197.95100           177.09900           176.55430           184.99560           191.46790           191.31540           174.30990           170.84100           167.62060           178.67320           167.96010           176.27720           199.73120           216.04540           190.13220           216.28420           219.45550           221.94470           206.10930           241.22430           291.19520           334.81230           378.70710           348.93260           291.56650           296.22320           244.13210           243.80340           275.11310           271.41120           258.97660           254.68860           314.06670           268.06790           279.70150           253.60180           226.27900           264.34920           225.08770           259.23570           211.65380           192.74950           152.49980           177.43180           200.44140           202.22450           169.23250           174.90230           179.66870           179.50810           173.30220           164.13030           154.90310           160.94140           169.50710           162.40840           168.27490           168.58410           200.11420           218.27280           210.20490           196.46740           178.32260           207.47480           206.18890           176.96580           170.93230           169.92780           167.43600           171.61610           172.84280           179.62740           177.70470           209.10750           225.34050           232.59790           225.71040           224.22500           246.41250           251.05130           299.84440           296.31940           328.52560           371.34010           313.86790           299.18590           272.33550           277.82610           277.39870           264.72940           261.34260           265.79430           287.53000           249.69650           247.43750           241.50560           226.49510           249.81730           213.72410           263.81050           216.54570           189.82200           153.34670           181.38690           209.34800           214.59520           188.27230           186.27800           176.04330           177.57890           168.54410           159.40550           168.20100           178.46780           175.58080           163.54460           165.99030           168.71860           180.50180           204.69320           205.61780           221.11390           211.09120           189.74200           184.27870           172.12280           155.48020           158.32510           164.27590           156.76130           168.05670           170.40540           174.58760           195.52800           212.70590           217.56870           239.90430           228.93970           235.37860           256.65260           297.47480           375.69430           355.90700           344.11880           323.29370           289.32380           268.11340           333.82920           296.64500           252.95000           280.24410           250.00970           273.58440           273.52610           253.35560           224.12730           229.61730           228.08720           257.67500           261.18370           248.83580           193.11170           162.47340           191.00000           200.40420           189.35420           185.04960           193.86220           200.55030           174.87870           168.67510           166.27600           167.30920           179.65260           190.30840           193.61720           190.96100           188.84890           196.08590           199.05040           189.29670           201.26410           207.46590           216.46270           184.37970           170.22370           165.05850           155.93590           150.87830           161.44780           174.25690           200.19270           178.99730           210.20570           233.69040           207.93480           233.44830           213.15250           246.31900           256.45320           293.57100           294.46690           346.76450           330.26800           285.39890           264.59540           305.94440           309.26890           284.99660           250.62630           265.30730           251.70870           266.92480           283.24130           248.07280           239.34420           216.08670           212.60860           271.17270           257.48780           238.00680           191.08940           158.80040           173.33510           206.37780           199.63440           190.84920           182.18430           188.81770           181.01850           168.24570           160.19680           151.52390           150.39810           159.52310           169.56580           181.02340           181.29640           195.21080           187.79700           191.27660           200.50060           195.15250           191.41660           178.88580           187.92470           151.86160           154.13250           167.54130           185.41900           205.19050           175.51750           181.69500           201.93010           239.24040           244.08840           225.99900           222.93630           250.78710           265.32150           331.33420           310.41700           323.91620           312.30720           266.69200           279.32260           315.48010           299.90130           298.14860           241.60140           239.76740           266.84270           269.99690           244.26400           243.59750           204.99660           225.89670           198.76990           278.80380           264.46140           277.54950           198.04040           165.22490           177.85580           207.45830           186.65390           185.25000           185.05250           188.91460           181.35950           165.42960           159.79190           161.10570           161.46350           172.36460           172.68810           165.58420           164.24250           173.59270           183.00370           174.83280           177.02160           191.85880           194.51620           168.64610           167.58380           181.12970           161.70930           167.15390           184.18720           207.44070           226.30480           196.11690           218.77760           264.48210           240.04250           252.43480           246.88670           248.16920           263.00530           365.77270           319.38550           307.21260           325.36920           313.38950           286.82490           323.95190           281.87640           304.35910           238.84720           242.56130           270.11340           257.17940           238.97170           242.74280           214.89360           220.82310           217.63900           251.16240           301.55370           257.51030           197.86530           178.86040           181.99430           188.89740           178.53040           182.79200           180.80670           181.00810           172.48030           166.42990           162.21980           156.77550           163.70290           173.06200           170.82750           167.80500           175.65660           170.84420           161.62820           159.09050           180.42280           205.29500           184.76030           171.37760           163.22970           167.12450           155.55010           146.41250           184.17440           197.03170           186.79400           183.49180           208.66870           218.04090           249.34620           237.77160           252.07840           233.82910           251.34660           312.26810           330.91680           265.81980           293.83620           337.53500           310.05090           285.91790           323.06190           312.73380           246.62030           237.98520           271.48410           238.57210           248.97470           210.95610           235.76780           229.60670           217.78600           232.51670           308.25700           238.75930           199.83150           189.93340           184.07700           189.58520           161.52190           182.48940           178.45390           170.23810           167.37990           169.18130           172.03010           175.63980           176.74090           181.57160           178.47390           165.54390           157.83080           163.15870           169.97460           177.09900           191.46930           190.34310           178.72300           174.14190           161.81680           169.56130           157.05240           170.96360           181.53500           178.14050           184.22120           192.52480           217.36810           207.33920           260.58140           264.75400           256.59960           234.00500           286.66060           272.57760           300.40310           271.18010           297.94760           291.11050           296.45280           289.74570           405.88260           310.73730           218.18730           245.66850           255.20390           231.49820           218.92390           200.87680           228.31430           242.89900           219.79280           219.88220           294.99610           323.48800           194.68980           189.59720           200.81850           186.08750           174.86190           214.05380           188.80930           174.04840           165.13090           162.71140           158.91190           159.92810           164.52120           163.43190           158.29950           178.10570           178.56040           171.58150           170.52950           161.59030           167.28350           166.02360           165.27790           160.30370           164.28170           165.21360           172.98720           163.68860           179.33360           193.23160           183.99260           207.50880           196.38210           234.55730           238.95630           247.93580           263.53130           251.35430           222.27560           259.95180           236.99080           266.91880           271.41920           316.20270           314.63330           342.55110           339.17540           285.29720           246.66160           243.89250           254.63420           197.26490           200.72310           198.40250           233.41870           220.40510           211.06220           224.94400           267.46100           256.81080           197.13620           198.09660           181.54590           195.10400           177.04490           210.74000           177.82450           171.72590           158.16250           147.01180           142.61020           146.73430           163.06900           159.48190           154.24010           164.50410           174.93560           165.22970           171.32660           171.84900           166.92360           172.08830           171.74290           159.36810           178.18490           172.69330           155.09050           186.48650           195.35470           188.58010           191.35560           208.68130           201.85590           223.68430           250.75320           262.21390           240.51750           239.10450           244.46160           237.23490           232.82920           241.23640           293.79050           280.25600           301.30060           326.84470           328.64100           306.69140           244.53030           241.33830           237.92580           177.98570           181.17710           192.95840           212.68600           237.40120           195.99520           202.75500           243.77930           253.00940           222.02530           175.84890           195.73430           196.47620           183.17810           196.94240           164.15590           153.44860           151.09700           146.25170           146.22870           147.01860           151.09050           152.57050           154.77100           148.65350           172.12800           190.34360           169.16610           171.22250           181.73250           175.15280           166.88360           165.22990           177.30000           173.45620           178.03780           180.14480           192.95830           186.48670           194.50420           209.44880           210.57510           218.12850           286.54460           271.63200           237.98710           240.20660           242.66560           249.18520           222.38440           256.29000           283.07740           271.52130           292.65430           289.18620           304.14090           300.80860           250.57840           230.34550           228.27590           196.37950           191.11450           173.99690           219.67700           233.13520           222.97780           235.59320           252.98900           223.02730           220.54350           197.59530           201.88770           190.45190           199.80750           208.73000           174.74450           158.14130           161.54720           163.34730           152.95730           147.90770           148.13910           149.14870           156.82780           172.19660           182.20100           192.91630           190.33050           177.48340           166.07570           163.99040           172.97610           164.73140           169.85840           178.00460           171.46410           161.12150           163.15370           182.70030           217.18480           221.00430           229.99730           213.50250           234.79600           266.95430           237.08760           237.95340           239.65380           252.14050           259.69360           252.28270           269.87200           295.74720           274.34650           256.24630           253.36470           274.33440           231.69660           237.22190           212.70100           166.59530           190.03910           171.98380           205.49910           232.45810           230.40000           203.85450           248.18890           246.72170           217.04580           190.93790           205.09780           212.41400           202.25480           199.58730           186.22200           169.00080           172.25980           161.69930           148.68180           148.57670           149.25540           161.16780           158.56170           165.81780           194.94880           193.80670           189.89090           189.84530           181.85510           168.25650           180.51510           163.03230           173.49890           174.33310           181.46730           165.98150           170.06670           191.93910           224.66310           226.23110           229.69270           246.23360           225.65030           252.90290           207.81540           203.44810           216.34090           235.96210           246.56930           252.25130           258.93880           299.13400           246.82970           247.24480           258.73200           248.26170           223.16300           210.55820           209.06940           159.26050           186.46690           163.58370           199.59650           227.90950           228.95950           211.33280           234.48430           249.43160           230.05670           213.72890           181.97800           218.07700           190.50210           214.60430           176.31800           173.95470           179.47390           165.96700           160.19460           148.89120           141.77960           151.55410           164.25490           172.96260           184.77480           183.07940           214.98110           220.63690           195.25520           188.18570           181.24840           189.18080           190.52790           180.10840           173.81990           167.52720           177.21080           191.96320           216.60080           222.53450           241.54770           256.99720           231.41540           220.96790           199.40360           202.64030           232.37250           242.86170           281.29060           249.10860           266.26020           295.97040           238.02390           205.46020           240.09790           219.63990           241.24110           207.93760           212.19840           168.95010           185.61540           193.27890           191.54770           227.64870           260.07100           226.07030           260.25520           289.40130           219.31610           237.71490           197.94090           229.74570           188.84980           218.89180           173.37250           175.18440           178.40080           171.04120           164.79240           153.08400           150.47910           152.76430           161.40410           192.07900           174.66240           179.91180           194.84050           209.65230           208.14600           182.82760           177.55330           192.86860           178.42530           160.70470           165.32450           174.62910           168.87590           188.82490           203.06310           214.33300           262.93800           248.85390           223.82600           219.35360           190.74580           220.18520           230.19640           240.93370           276.811