# vtk DataFile Version 3.0
Output from R2
ASCII
DATASET UNSTRUCTURED_GRID
POINTS      18361 double
    -0.50200     0.06900   0.
    -0.50200    -0.06900   0.
    -0.50200    -0.20900   0.
    -0.50200    -0.35300   0.
    -0.50200    -0.50100   0.
    -0.50200    -0.65400   0.
    -0.50200    -0.81000   0.
    -0.50200    -0.97100   0.
    -0.50200    -1.13600   0.
    -0.50200    -1.30500   0.
    -0.50200    -1.48000   0.
    -0.50200    -1.65900   0.
    -0.50200    -1.84300   0.
    -0.50200    -2.03200   0.
    -0.50200    -2.22700   0.
    -0.50200    -2.42700   0.
    -0.50200    -2.63200   0.
    -0.50200    -2.84300   0.
    -0.50200    -3.06000   0.
    -0.50200    -3.28300   0.
    -0.50200    -3.51200   0.
    -0.50200    -3.74700   0.
    -0.50200    -3.98900   0.
    -0.50200    -4.23800   0.
    -0.50200    -4.49300   0.
    -0.50200    -4.75600   0.
    -0.50200    -5.02600   0.
    -0.50200    -5.30300   0.
    -0.50200    -5.58800   0.
    -0.50200    -5.88000   0.
    -0.50200    -6.18100   0.
    -0.50200    -6.49100   0.
    -0.50200    -6.80800   0.
    -0.50200    -7.13500   0.
    -0.50200    -7.47000   0.
    -0.50200    -7.81500   0.
    -0.50200    -8.17000   0.
    -0.50200    -8.53400   0.
    -0.50200    -8.90800   0.
    -0.50200    -9.29300   0.
    -0.50200    -9.68800   0.
    -0.50200   -10.09400   0.
    -0.50200   -10.51200   0.
    -0.50200   -10.94100   0.
    -0.50200   -11.38100   0.
    -0.50200   -11.83400   0.
    -0.50200   -12.30000   0.
    -0.50200   -12.77800   0.
    -0.50200   -13.27000   0.
    -0.50200   -13.77500   0.
    -0.50200   -14.29500   0.
    -0.50200   -14.82800   0.
    -0.50200   -15.37600   0.
    -0.50200   -15.94000   0.
    -0.50200   -16.51900   0.
    -0.50200   -17.11400   0.
    -0.50200   -17.72600   0.
    -0.50200   -18.35400   0.
    -0.50200   -19.00000   0.
    -0.50200   -19.66400   0.
    -0.50200   -20.33600   0.
     0.50200     0.06900   0.
     0.50200    -0.06900   0.
     0.50200    -0.20900   0.
     0.50200    -0.35300   0.
     0.50200    -0.50100   0.
     0.50200    -0.65400   0.
     0.50200    -0.81000   0.
     0.50200    -0.97100   0.
     0.50200    -1.13600   0.
     0.50200    -1.30500   0.
     0.50200    -1.48000   0.
     0.50200    -1.65900   0.
     0.50200    -1.84300   0.
     0.50200    -2.03200   0.
     0.50200    -2.22700   0.
     0.50200    -2.42700   0.
     0.50200    -2.63200   0.
     0.50200    -2.84300   0.
     0.50200    -3.06000   0.
     0.50200    -3.28300   0.
     0.50200    -3.51200   0.
     0.50200    -3.74700   0.
     0.50200    -3.98900   0.
     0.50200    -4.23800   0.
     0.50200    -4.49300   0.
     0.50200    -4.75600   0.
     0.50200    -5.02600   0.
     0.50200    -5.30300   0.
     0.50200    -5.58800   0.
     0.50200    -5.88000   0.
     0.50200    -6.18100   0.
     0.50200    -6.49100   0.
     0.50200    -6.80800   0.
     0.50200    -7.13500   0.
     0.50200    -7.47000   0.
     0.50200    -7.81500   0.
     0.50200    -8.17000   0.
     0.50200    -8.53400   0.
     0.50200    -8.90800   0.
     0.50200    -9.29300   0.
     0.50200    -9.68800   0.
     0.50200   -10.09400   0.
     0.50200   -10.51200   0.
     0.50200   -10.94100   0.
     0.50200   -11.38100   0.
     0.50200   -11.83400   0.
     0.50200   -12.30000   0.
     0.50200   -12.77800   0.
     0.50200   -13.27000   0.
     0.50200   -13.77500   0.
     0.50200   -14.29500   0.
     0.50200   -14.82800   0.
     0.50200   -15.37600   0.
     0.50200   -15.94000   0.
     0.50200   -16.51900   0.
     0.50200   -17.11400   0.
     0.50200   -17.72600   0.
     0.50200   -18.35400   0.
     0.50200   -19.00000   0.
     0.50200   -19.66400   0.
     0.50200   -20.33600   0.
     1.50500     0.06900   0.
     1.50500    -0.06900   0.
     1.50500    -0.20900   0.
     1.50500    -0.35300   0.
     1.50500    -0.50100   0.
     1.50500    -0.65400   0.
     1.50500    -0.81000   0.
     1.50500    -0.97100   0.
     1.50500    -1.13600   0.
     1.50500    -1.30500   0.
     1.50500    -1.48000   0.
     1.50500    -1.65900   0.
     1.50500    -1.84300   0.
     1.50500    -2.03200   0.
     1.50500    -2.22700   0.
     1.50500    -2.42700   0.
     1.50500    -2.63200   0.
     1.50500    -2.84300   0.
     1.50500    -3.06000   0.
     1.50500    -3.28300   0.
     1.50500    -3.51200   0.
     1.50500    -3.74700   0.
     1.50500    -3.98900   0.
     1.50500    -4.23800   0.
     1.50500    -4.49300   0.
     1.50500    -4.75600   0.
     1.50500    -5.02600   0.
     1.50500    -5.30300   0.
     1.50500    -5.58800   0.
     1.50500    -5.88000   0.
     1.50500    -6.18100   0.
     1.50500    -6.49100   0.
     1.50500    -6.80800   0.
     1.50500    -7.13500   0.
     1.50500    -7.47000   0.
     1.50500    -7.81500   0.
     1.50500    -8.17000   0.
     1.50500    -8.53400   0.
     1.50500    -8.90800   0.
     1.50500    -9.29300   0.
     1.50500    -9.68800   0.
     1.50500   -10.09400   0.
     1.50500   -10.51200   0.
     1.50500   -10.94100   0.
     1.50500   -11.38100   0.
     1.50500   -11.83400   0.
     1.50500   -12.30000   0.
     1.50500   -12.77800   0.
     1.50500   -13.27000   0.
     1.50500   -13.77500   0.
     1.50500   -14.29500   0.
     1.50500   -14.82800   0.
     1.50500   -15.37600   0.
     1.50500   -15.94000   0.
     1.50500   -16.51900   0.
     1.50500   -17.11400   0.
     1.50500   -17.72600   0.
     1.50500   -18.35400   0.
     1.50500   -19.00000   0.
     1.50500   -19.66400   0.
     1.50500   -20.33600   0.
     2.50800     0.06900   0.
     2.50800    -0.06900   0.
     2.50800    -0.20900   0.
     2.50800    -0.35300   0.
     2.50800    -0.50100   0.
     2.50800    -0.65400   0.
     2.50800    -0.81000   0.
     2.50800    -0.97100   0.
     2.50800    -1.13600   0.
     2.50800    -1.30500   0.
     2.50800    -1.48000   0.
     2.50800    -1.65900   0.
     2.50800    -1.84300   0.
     2.50800    -2.03200   0.
     2.50800    -2.22700   0.
     2.50800    -2.42700   0.
     2.50800    -2.63200   0.
     2.50800    -2.84300   0.
     2.50800    -3.06000   0.
     2.50800    -3.28300   0.
     2.50800    -3.51200   0.
     2.50800    -3.74700   0.
     2.50800    -3.98900   0.
     2.50800    -4.23800   0.
     2.50800    -4.49300   0.
     2.50800    -4.75600   0.
     2.50800    -5.02600   0.
     2.50800    -5.30300   0.
     2.50800    -5.58800   0.
     2.50800    -5.88000   0.
     2.50800    -6.18100   0.
     2.50800    -6.49100   0.
     2.50800    -6.80800   0.
     2.50800    -7.13500   0.
     2.50800    -7.47000   0.
     2.50800    -7.81500   0.
     2.50800    -8.17000   0.
     2.50800    -8.53400   0.
     2.50800    -8.90800   0.
     2.50800    -9.29300   0.
     2.50800    -9.68800   0.
     2.50800   -10.09400   0.
     2.50800   -10.51200   0.
     2.50800   -10.94100   0.
     2.50800   -11.38100   0.
     2.50800   -11.83400   0.
     2.50800   -12.30000   0.
     2.50800   -12.77800   0.
     2.50800   -13.27000   0.
     2.50800   -13.77500   0.
     2.50800   -14.29500   0.
     2.50800   -14.82800   0.
     2.50800   -15.37600   0.
     2.50800   -15.94000   0.
     2.50800   -16.51900   0.
     2.50800   -17.11400   0.
     2.50800   -17.72600   0.
     2.50800   -18.35400   0.
     2.50800   -19.00000   0.
     2.50800   -19.66400   0.
     2.50800   -20.33600   0.
     3.51200     0.06900   0.
     3.51200    -0.06900   0.
     3.51200    -0.20900   0.
     3.51200    -0.35300   0.
     3.51200    -0.50100   0.
     3.51200    -0.65400   0.
     3.51200    -0.81000   0.
     3.51200    -0.97100   0.
     3.51200    -1.13600   0.
     3.51200    -1.30500   0.
     3.51200    -1.48000   0.
     3.51200    -1.65900   0.
     3.51200    -1.84300   0.
     3.51200    -2.03200   0.
     3.51200    -2.22700   0.
     3.51200    -2.42700   0.
     3.51200    -2.63200   0.
     3.51200    -2.84300   0.
     3.51200    -3.06000   0.
     3.51200    -3.28300   0.
     3.51200    -3.51200   0.
     3.51200    -3.74700   0.
     3.51200    -3.98900   0.
     3.51200    -4.23800   0.
     3.51200    -4.49300   0.
     3.51200    -4.75600   0.
     3.51200    -5.02600   0.
     3.51200    -5.30300   0.
     3.51200    -5.58800   0.
     3.51200    -5.88000   0.
     3.51200    -6.18100   0.
     3.51200    -6.49100   0.
     3.51200    -6.80800   0.
     3.51200    -7.13500   0.
     3.51200    -7.47000   0.
     3.51200    -7.81500   0.
     3.51200    -8.17000   0.
     3.51200    -8.53400   0.
     3.51200    -8.90800   0.
     3.51200    -9.29300   0.
     3.51200    -9.68800   0.
     3.51200   -10.09400   0.
     3.51200   -10.51200   0.
     3.51200   -10.94100   0.
     3.51200   -11.38100   0.
     3.51200   -11.83400   0.
     3.51200   -12.30000   0.
     3.51200   -12.77800   0.
     3.51200   -13.27000   0.
     3.51200   -13.77500   0.
     3.51200   -14.29500   0.
     3.51200   -14.82800   0.
     3.51200   -15.37600   0.
     3.51200   -15.94000   0.
     3.51200   -16.51900   0.
     3.51200   -17.11400   0.
     3.51200   -17.72600   0.
     3.51200   -18.35400   0.
     3.51200   -19.00000   0.
     3.51200   -19.66400   0.
     3.51200   -20.33600   0.
     4.51500     0.06900   0.
     4.51500    -0.06900   0.
     4.51500    -0.20900   0.
     4.51500    -0.35300   0.
     4.51500    -0.50100   0.
     4.51500    -0.65400   0.
     4.51500    -0.81000   0.
     4.51500    -0.97100   0.
     4.51500    -1.13600   0.
     4.51500    -1.30500   0.
     4.51500    -1.48000   0.
     4.51500    -1.65900   0.
     4.51500    -1.84300   0.
     4.51500    -2.03200   0.
     4.51500    -2.22700   0.
     4.51500    -2.42700   0.
     4.51500    -2.63200   0.
     4.51500    -2.84300   0.
     4.51500    -3.06000   0.
     4.51500    -3.28300   0.
     4.51500    -3.51200   0.
     4.51500    -3.74700   0.
     4.51500    -3.98900   0.
     4.51500    -4.23800   0.
     4.51500    -4.49300   0.
[...]
POINT_DATA     18361
CELL_DATA     18000
SCALARS Resistivity(Ohm-m) double 1
LOOKUP_TABLE default
           162.91880           159.66890           156.32910           155.13610           154.55940           147.08780           136.16130           128.72950           122.74030           124.00170           126.71090           121.97870           117.91410           115.41160           117.44160           121.23100           122.99550           121.03640           116.48000           110.23840           103.04110           100.22300           101.41250            98.43221            96.99670            99.08601            97.26766            99.24571           106.55850           105.90530           101.06140           100.18920           102.29470            95.19824            96.53008            98.28325            96.29547            99.91793           114.51760           127.92370           129.65150           139.49800           148.81930           173.50940           174.42000           158.75070           174.38630           176.16450           216.67150           183.72120           188.95930           185.33430           182.96550           164.57070           139.45840           119.85930           109.30580            93.11928           100.41390           122.60570           162.66520           159.32630           155.89500           157.58970           160.84510           157.88740           151.87140           143.55280           134.07670           125.16180           116.32160           111.57090           109.13810           111.77430           119.84760           127.67990           117.48970           113.48650           113.93580           117.88040           114.15320           107.24820            99.33323            93.67281            98.13024           100.42690           102.34510           105.91750           114.62160           121.27340           110.27030           106.07910           105.99320           100.21450            98.30905            98.24715            98.47653           100.11530           120.93340           132.35100           130.77700           148.77010           162.50710           183.63070           174.66340           169.33160           223.47870           195.46540           186.62440           156.01280           160.14330           191.74510           188.57900           150.20670           125.14730           114.21430           110.72390            97.25823            91.79782           124.52400           167.30360           158.92510           150.31500           152.00560           156.79890           157.03790           155.07040           148.82050           140.56240           135.82070           131.70410           125.01980           119.79750           117.88400           120.02340           121.92450           110.28940           105.29510           106.65620           118.14540           116.00630           108.56730            99.29107            92.33566            94.28084           102.31520           106.46080           107.91240           114.58200           122.51350           118.55340           111.41840           102.31730           103.62050           103.46940           101.60170           105.09670           102.50840           112.05950           134.39750           137.03960           140.95290           166.76670           173.25870           169.05800           167.70220           202.89830           203.88050           187.03790           159.09890           178.89950           195.96000           181.56020           162.94820           124.62000           116.72560           111.85170            98.07279           101.80660           125.98070           148.21990           146.24350           144.21250           145.21270           147.13580           144.88240           140.56950           137.25040           134.32280           129.55130           124.37750           122.90400           122.32940           123.70920           120.22010           114.91540           112.35960           109.32460           107.24460           110.20630           110.09590           103.55920            93.00361            91.58616            97.17356           101.82870           104.71290           110.27160           118.34620           119.61130           113.58300           110.20090           107.32770           110.14640           109.44530           106.58830           107.61940           109.36910           107.64760           118.68730           124.95320           145.73230           138.40220           157.54630           155.37590           182.67950           228.10670           193.21100           159.19850           162.45530           176.75180           185.57810           182.92260           163.60210           124.03660           116.74540           109.08140            97.22821            99.56069           117.39890           156.29990           159.87120           163.54120           158.55650           150.89490           143.14640           135.24250           127.48400           119.66890           119.20570           120.46570           123.33140           124.47040           121.85360           121.19740           121.03680           118.39510           116.91910           114.70610           106.80660           107.28060           105.68450           100.56110            98.71608           101.66520           104.14890           112.66140           116.97560           116.24180           121.35900           117.10910           110.03640           112.09740           115.23510           108.98300           101.30970           103.49510           108.40160           113.75370           124.41660           125.58080           145.68920           136.20110           142.05090           148.38930           163.90380           186.96590           190.80630           166.27800           186.29350           201.65460           168.03410           205.20470           163.85100           135.70010           114.06180           102.58710            99.73193           100.75520           110.89350           147.70980           150.75840           153.89130           148.54370           140.56400           133.45530           126.66530           127.07570           130.70450           132.27140           133.28880           130.84090           128.45730           126.28470           126.23360           127.23090           128.80540           125.37100           119.97620           118.51840           115.97150           110.81560           104.84500           106.08410           106.01440           110.19170           117.15160           120.90810           120.07320           118.17550           112.92690           109.80630           111.24420           117.62850           116.33780           103.73980           103.00910           105.22810           107.01950           126.18000           128.66970           130.38280           133.24280           145.80250           162.32690           165.18360           183.44000           186.92430           169.13020           167.32620           186.24280           169.13950           171.40800           162.94020           146.17060           119.64710           101.33800           103.07850            99.40869           113.80320           163.22860           157.55790           151.73030           144.77140           137.33870           134.00920           132.62220           130.36490           127.68410           127.79510           128.70050           134.44020           137.56250           134.94990           133.14840           131.87140           131.74120           128.29360           122.49020           115.05100           113.38280           109.04760           102.21410           102.90290           103.99120           101.45860           110.18570           127.70550           132.88720           120.10040           116.23760           114.43120           115.75180           119.50630           112.74540           103.50440            94.01900            99.46249           110.18960           115.27460           127.94610           140.27700           137.40250           147.22510           160.97200           179.28920           189.53860           179.24080           149.86530           175.16100           186.07860           156.58470           162.49840           162.43260           144.09270           123.06160           111.59070           114.91940           101.29350           125.24250           154.40040           150.80990           147.12010           145.31710           144.04090           144.69320           146.29070           141.82130           134.57560           131.34810           129.21430           134.66620           139.09510           141.18500           139.69580           136.28430           131.02070           126.71190           122.66120           117.49280           115.23550           113.45250           111.07280           107.05050           106.74180           103.21350           105.68260           115.10290           120.91880           119.07900           120.13270           113.41450           111.97940           115.36000           110.35950           104.13740            96.33123            95.54015           124.22330           132.07680           140.59380           134.83250           128.24930           150.46190           168.06540           185.74500           167.97190           182.98800           185.77320           153.78870           170.84590           144.76160           150.18040           152.07070           136.31490           117.27700           114.72830           119.42890           110.75170           121.11970           138.64580           134.00980           129.24560           127.86230           127.45920           125.96340           123.91540           125.42960           128.55660           131.93710           135.33910           135.40280           135.43910           135.41520           137.67780           140.01760           136.01390           130.99220           125.98440           123.52680           118.70360           115.02740           111.39760           100.37260           101.89900           101.81890           103.74170           109.41390           115.45650           118.62410           118.03730           109.37570           110.84980           111.33080           107.38530            99.66534            94.83428            98.83042           119.10770           132.91690           135.51860           121.84600           141.81240           138.92170           157.28590           190.95660           167.59360           159.51400           173.82610           167.31690           166.35320           143.66710           154.19080           164.54680           129.17960           118.10350           116.44130           126.01960           112.70720           117.08170           144.13060           134.73020           125.06990           121.10910           118.76890           118.11440           118.26840           120.29720           123.19400           123.88070           124.15530           126.92380           129.78380           132.75460           131.29690           127.74430           123.70380           122.92350           124.60340           128.55910           119.72180           107.92410            98.61144            99.70693           105.21420           108.35710           110.57750           114.29920           117.76620           118.38340           117.02900           106.06460           101.70460           107.41410           106.31120            99.05253            98.33669           102.90000           115.94490           129.05270           123.94590           127.73810           146.76310           154.39490           152.32900           189.04830           171.47150           159.06790           166.79670           163.31350           161.16240           142.68100           169.00200           149.77220           125.94050           124.28610           122.24810           122.89740           107.95310           124.08830           126.78910           122.26350           117.61280           117.10610           117.82430           117.15050           115.79130           115.67590           116.11360           118.10350           120.74630           131.47030           139.63250           142.02650           135.94190           125.91210           115.60850           117.30570           125.38210           130.94200           122.56790           109.77670            97.62225            93.64544           105.81280           109.86120           112.27970           119.35400           121.36090           111.19640           110.92000           109.46580           107.66300           106.53440           101.34920            98.46485           101.14500           104.52600           111.74600           126.99500           137.15210           141.96680           158.14350           176.97240           167.85830           158.29900           169.35410           177.91070           167.46120           154.23280           145.19560           134.95900           139.26030           134.01190           126.77630           118.98530           108.66870           122.52130           110.87180           121.87070           133.56710           123.90810           113.98190           110.02010           107.75790           109.29990           112.71040           112.60750           110.93560           112.89190           116.20630           134.86990           148.73950           151.85710           143.42170           129.65520           115.81370           111.66480           114.28770           121.52380           116.10640           109.56710           106.06840           107.19810           116.45930           116.76810           113.77330           120.63070           129.52310           123.01350           117.57360           107.29190           106.60620           107.10080           103.57930           102.77510           107.92550           107.29340           117.38870           123.13070           124.37040           136.39940           138.83310           164.47500           166.77240           161.31590           162.74780           179.04480           164.00280           168.69030           150.16880           134.61680           140.03740           128.60910           122.62030           129.01710           115.93320           112.47400           124.16260           128.37460           128.92420           121.30710           113.47930           112.15600           112.74510           113.28730           113.81460           112.92690           111.39410           114.09030           118.22240           135.35090           149.94860           158.64960           147.80800           129.86560           123.93540           119.12680           116.12870           117.89440           114.70190           111.78070           111.13080           113.54200           117.82420           114.87040           113.28300           126.18210           140.64780           130.15230           113.70830           105.14280           105.36230           104.52760           104.86390           107.00670           103.93990           109.46620           123.03500           125.30680           122.61620           131.13250           139.79990           164.82090           167.01850           173.27290           174.10750           169.81290           163.41420           171.69890           150.33960           141.42690           131.14440           127.50970           120.81340           127.55580           118.16870           115.89550           125.04060           117.62860           122.99660           118.30200           113.47760           113.94690           116.00290           115.26800           113.16820           110.59330           107.76620           111.48930           117.01650           129.75270           139.60950           142.96180           137.47260           128.72990           125.19870           119.76830           113.48340           108.32500           111.45700           116.79260           120.97770           119.00890           119.14430           115.71470           113.94710           119.44990           128.35630           126.78150           112.33560           103.39280           108.55310           108.65450           104.10670           103.38480           103.30930           106.99390           111.83470           116.67740           129.53250           136.23830           135.88200           156.04950           172.60680           172.70230           175.71390           183.34240           163.91660           171.24660           150.27320           137.35400           119.62930           118.92560           122.56180           110.63100           113.45180           113.81280           115.54280           115.34260           121.65570           116.55120           111.30550           108.61200           106.62620           108.99460           113.51040           113.35710           111.11870           112.72760           115.68230           132.24630           143.45380           142.77810           139.43740           134.08580           123.77010           116.53170           110.83260           104.25190           110.08970           120.33920           129.02160           124.16210           113.52380           103.47050           102.36620           109.92240           119.98200           123.76130           115.33610           109.18450           107.17200           107.60870           112.80350           109.60540           103.37160           111.48790           111.04490           116.12660           129.49720           132.85630           137.71900           139.76550           154.95030           178.79200           176.00160           168.86140           170.95850           163.02920           136.77660           151.60370           131.21620           122.94320           123.19530           114.43560           113.81380           111.98880           110.63370           111.93930           129.62620           126.35200           122.98730           115.52150           106.68710           107.57060           113.18260           115.88680           117.33620           114.75600           111.70920           124.65320           135.16080           140.09940           133.16830           121.80670           117.00510           118.28590           121.51700           118.28750           118.14960           120.35240           122.30290           115.86770           109.88730           104.05640           105.02800           112.77450           123.81160           129.37470           119.53400           111.91310           104.82380           105.40070           109.45880           112.45610           109.15860           103.91290           109.24840           112.89740           127.49700           138.52310           141.46800           155.62920           166.94410           175.49340           183.93290           185.79280           155.66120           159.36310           134.34180           138.20350           127.28720           110.37960           114.71510           118.32380           116.26740           104.88240           111.54530           119.46840           126.20910           125.45560           124.68130           119.42700           112.73470           114.53340           120.47860           119.20110           114.68180           118.65770           124.70300           132.14190           136.01180           132.07290           128.09120           123.80830           117.98910           116.29130           117.28500           119.48080           121.45900           121.18640           118.42070           115.28110           110.26410           105.67400           104.26470           107.81850           117.23290           127.11830           125.78360           116.68930           107.54810           108.47040           106.19970  