# vtk DataFile Version 3.0
Output from R2
ASCII
DATASET UNSTRUCTURED_GRID
POINTS      18361 double
    -0.50200     0.06900   0.
    -0.50200    -0.06900   0.
    -0.50200    -0.20900   0.
    -0.50200    -0.35300   0.
    -0.50200    -0.50100   0.
    -0.50200    -0.65400   0.
    -0.50200    -0.81000   0.
    -0.50200    -0.97100   0.
    -0.50200    -1.13600   0.
    -0.50200    -1.30500   0.
    -0.50200    -1.48000   0.
    -0.50200    -1.65900   0.
    -0.50200    -1.84300   0.
    -0.50200    -2.03200   0.
    -0.50200    -2.22700   0.
    -0.50200    -2.42700   0.
    -0.50200    -2.63200   0.
    -0.50200    -2.84300   0.
    -0.50200    -3.06000   0.
    -0.50200    -3.28300   0.
    -0.50200    -3.51200   0.
    -0.50200    -3.74700   0.
    -0.50200    -3.98900   0.
    -0.50200    -4.23800   0.
    -0.50200    -4.49300   0.
    -0.50200    -4.75600   0.
    -0.50200    -5.02600   0.
    -0.50200    -5.30300   0.
    -0.50200    -5.58800   0.
    -0.50200    -5.88000   0.
    -0.50200    -6.18100   0.
    -0.50200    -6.49100   0.
    -0.50200    -6.80800   0.
    -0.50200    -7.13500   0.
    -0.50200    -7.47000   0.
    -0.50200    -7.81500   0.
    -0.50200    -8.17000   0.
    -0.50200    -8.53400   0.
    -0.50200    -8.90800   0.
    -0.50200    -9.29300   0.
    -0.50200    -9.68800   0.
    -0.50200   -10.09400   0.
    -0.50200   -10.51200   0.
    -0.50200   -10.94100   0.
    -0.50200   -11.38100   0.
    -0.50200   -11.83400   0.
    -0.50200   -12.30000   0.
    -0.50200   -12.77800   0.
    -0.50200   -13.27000   0.
    -0.50200   -13.77500   0.
    -0.50200   -14.29500   0.
    -0.50200   -14.82800   0.
    -0.50200   -15.37600   0.
    -0.50200   -15.94000   0.
    -0.50200   -16.51900   0.
    -0.50200   -17.11400   0.
    -0.50200   -17.72600   0.
    -0.50200   -18.35400   0.
    -0.50200   -19.00000   0.
    -0.50200   -19.66400   0.
    -0.50200   -20.33600   0.
     0.50200     0.06900   0.
     0.50200    -0.06900   0.
     0.50200    -0.20900   0.
     0.50200    -0.35300   0.
     0.50200    -0.50100   0.
     0.50200    -0.65400   0.
     0.50200    -0.81000   0.
     0.50200    -0.97100   0.
     0.50200    -1.13600   0.
     0.50200    -1.30500   0.
     0.50200    -1.48000   0.
     0.50200    -1.65900   0.
     0.50200    -1.84300   0.
     0.50200    -2.03200   0.
     0.50200    -2.22700   0.
     0.50200    -2.42700   0.
     0.50200    -2.63200   0.
     0.50200    -2.84300   0.
     0.50200    -3.06000   0.
     0.50200    -3.28300   0.
     0.50200    -3.51200   0.
     0.50200    -3.74700   0.
     0.50200    -3.98900   0.
     0.50200    -4.23800   0.
     0.50200    -4.49300   0.
     0.50200    -4.75600   0.
     0.50200    -5.02600   0.
     0.50200    -5.30300   0.
     0.50200    -5.58800   0.
     0.50200    -5.88000   0.
     0.50200    -6.18100   0.
     0.50200    -6.49100   0.
     0.50200    -6.80800   0.
     0.50200    -7.13500   0.
     0.50200    -7.47000   0.
     0.50200    -7.81500   0.
     0.50200    -8.17000   0.
     0.50200    -8.53400   0.
     0.50200    -8.90800   0.
     0.50200    -9.29300   0.
     0.50200    -9.68800   0.
     0.50200   -10.09400   0.
     0.50200   -10.51200   0.
     0.50200   -10.94100   0.
     0.50200   -11.38100   0.
     0.50200   -11.83400   0.
     0.50200   -12.30000   0.
     0.50200   -12.77800   0.
     0.50200   -13.27000   0.
     0.50200   -13.77500   0.
     0.50200   -14.29500   0.
     0.50200   -14.82800   0.
     0.50200   -15.37600   0.
     0.50200   -15.94000   0.
     0.50200   -16.51900   0.
     0.50200   -17.11400   0.
     0.50200   -17.72600   0.
     0.50200   -18.35400   0.
     0.50200   -19.00000   0.
     0.50200   -19.66400   0.
     0.50200   -20.33600   0.
     1.50500     0.06900   0.
     1.50500    -0.06900   0.
     1.50500    -0.20900   0.
     1.50500    -0.35300   0.
     1.50500    -0.50100   0.
     1.50500    -0.65400   0.
     1.50500    -0.81000   0.
     1.50500    -0.97100   0.
     1.50500    -1.13600   0.
     1.50500    -1.30500   0.
     1.50500    -1.48000   0.
     1.50500    -1.65900   0.
     1.50500    -1.84300   0.
     1.50500    -2.03200   0.
     1.50500    -2.22700   0.
     1.50500    -2.42700   0.
     1.50500    -2.63200   0.
     1.50500    -2.84300   0.
     1.50500    -3.06000   0.
     1.50500    -3.28300   0.
     1.50500    -3.51200   0.
     1.50500    -3.74700   0.
     1.50500    -3.98900   0.
     1.50500    -4.23800   0.
     1.50500    -4.49300   0.
     1.50500    -4.75600   0.
     1.50500    -5.02600   0.
     1.50500    -5.30300   0.
     1.50500    -5.58800   0.
     1.50500    -5.88000   0.
     1.50500    -6.18100   0.
     1.50500    -6.49100   0.
     1.50500    -6.80800   0.
     1.50500    -7.13500   0.
     1.50500    -7.47000   0.
     1.50500    -7.81500   0.
     1.50500    -8.17000   0.
     1.50500    -8.53400   0.
     1.50500    -8.90800   0.
     1.50500    -9.29300   0.
     1.50500    -9.68800   0.
     1.50500   -10.09400   0.
     1.50500   -10.51200   0.
     1.50500   -10.94100   0.
     1.50500   -11.38100   0.
     1.50500   -11.83400   0.
     1.50500   -12.30000   0.
     1.50500   -12.77800   0.
     1.50500   -13.27000   0.
     1.50500   -13.77500   0.
     1.50500   -14.29500   0.
     1.50500   -14.82800   0.
     1.50500   -15.37600   0.
     1.50500   -15.94000   0.
     1.50500   -16.51900   0.
     1.50500   -17.11400   0.
     1.50500   -17.72600   0.
     1.50500   -18.35400   0.
     1.50500   -19.00000   0.
     1.50500   -19.66400   0.
     1.50500   -20.33600   0.
     2.50800     0.06900   0.
     2.50800    -0.06900   0.
     2.50800    -0.20900   0.
     2.50800    -0.35300   0.
     2.50800    -0.50100   0.
     2.50800    -0.65400   0.
     2.50800    -0.81000   0.
     2.50800    -0.97100   0.
     2.50800    -1.13600   0.
     2.50800    -1.30500   0.
     2.50800    -1.48000   0.
     2.50800    -1.65900   0.
     2.50800    -1.84300   0.
     2.50800    -2.03200   0.
     2.50800    -2.22700   0.
     2.50800    -2.42700   0.
     2.50800    -2.63200   0.
     2.50800    -2.84300   0.
     2.50800    -3.06000   0.
     2.50800    -3.28300   0.
     2.50800    -3.51200   0.
     2.50800    -3.74700   0.
     2.50800    -3.98900   0.
     2.50800    -4.23800   0.
     2.50800    -4.49300   0.
     2.50800    -4.75600   0.
     2.50800    -5.02600   0.
     2.50800    -5.30300   0.
     2.50800    -5.58800   0.
     2.50800    -5.88000   0.
     2.50800    -6.18100   0.
     2.50800    -6.49100   0.
     2.50800    -6.80800   0.
     2.50800    -7.13500   0.
     2.50800    -7.47000   0.
     2.50800    -7.81500   0.
     2.50800    -8.17000   0.
     2.50800    -8.53400   0.
     2.50800    -8.90800   0.
     2.50800    -9.29300   0.
     2.50800    -9.68800   0.
     2.50800   -10.09400   0.
     2.50800   -10.51200   0.
     2.50800   -10.94100   0.
     2.50800   -11.38100   0.
     2.50800   -11.83400   0.
     2.50800   -12.30000   0.
     2.50800   -12.77800   0.
     2.50800   -13.27000   0.
     2.50800   -13.77500   0.
     2.50800   -14.29500   0.
     2.50800   -14.82800   0.
     2.50800   -15.37600   0.
     2.50800   -15.94000   0.
     2.50800   -16.51900   0.
     2.50800   -17.11400   0.
     2.50800   -17.72600   0.
     2.50800   -18.35400   0.
     2.50800   -19.00000   0.
     2.50800   -19.66400   0.
     2.50800   -20.33600   0.
     3.51200     0.06900   0.
     3.51200    -0.06900   0.
     3.51200    -0.20900   0.
     3.51200    -0.35300   0.
     3.51200    -0.50100   0.
     3.51200    -0.65400   0.
     3.51200    -0.81000   0.
     3.51200    -0.97100   0.
     3.51200    -1.13600   0.
     3.51200    -1.30500   0.
     3.51200    -1.48000   0.
     3.51200    -1.65900   0.
     3.51200    -1.84300   0.
     3.51200    -2.03200   0.
     3.51200    -2.22700   0.
     3.51200    -2.42700   0.
     3.51200    -2.63200   0.
     3.51200    -2.84300   0.
     3.51200    -3.06000   0.
     3.51200    -3.28300   0.
     3.51200    -3.51200   0.
     3.51200    -3.74700   0.
     3.51200    -3.98900   0.
     3.51200    -4.23800   0.
     3.51200    -4.49300   0.
     3.51200    -4.75600   0.
     3.51200    -5.02600   0.
     3.51200    -5.30300   0.
     3.51200    -5.58800   0.
     3.51200    -5.88000   0.
     3.51200    -6.18100   0.
     3.51200    -6.49100   0.
     3.51200    -6.80800   0.
     3.51200    -7.13500   0.
     3.51200    -7.47000   0.
     3.51200    -7.81500   0.
     3.51200    -8.17000   0.
     3.51200    -8.53400   0.
     3.51200    -8.90800   0.
     3.51200    -9.29300   0.
     3.51200    -9.68800   0.
     3.51200   -10.09400   0.
     3.51200   -10.51200   0.
     3.51200   -10.94100   0.
     3.51200   -11.38100   0.
     3.51200   -11.83400   0.
     3.51200   -12.30000   0.
     3.51200   -12.77800   0.
     3.51200   -13.27000   0.
     3.51200   -13.77500   0.
     3.51200   -14.29500   0.
     3.51200   -14.82800   0.
     3.51200   -15.37600   0.
     3.51200   -15.94000   0.
     3.51200   -16.51900   0.
     3.51200   -17.11400   0.
     3.51200   -17.72600   0.
     3.51200   -18.35400   0.
     3.51200   -19.00000   0.
     3.51200   -19.66400   0.
     3.51200   -20.33600   0.
     4.51500     0.06900   0.
     4.51500    -0.06900   0.
     4.51500    -0.20900   0.
     4.51500    -0.35300   0.
     4.51500    -0.50100   0.
     4.51500    -0.65400   0.
     4.51500    -0.81000   0.
     4.51500    -0.97100   0.
     4.51500    -1.13600   0.
     4.51500    -1.30500   0.
     4.51500    -1.48000   0.
     4.51500    -1.65900   0.
     4.51500    -1.84300   0.
     4.51500    -2.03200   0.
[...]
POINT_DATA     18361
CELL_DATA     18000
SCALARS Resistivity(Ohm-m) double 1
LOOKUP_TABLE default
           172.41440           173.77690           175.17710           183.24580           193.46000           194.60840           191.37440           183.03060           172.27670           185.38460           203.96080           214.37430           218.79950           210.18550           195.75630           181.32460           184.90170           210.97800           241.69400           237.69960           223.07300           210.36150           200.62960           183.63900           199.13530           205.82770           181.99720           164.09470           181.61290           193.47740           177.59940           193.22760           217.63740           203.08390           194.64740           186.54550           169.58140           181.05320           167.31350           149.87350           138.47240           154.03600           172.24840           138.40560           163.24340           142.78560           171.30870           183.84380           206.75170           229.89620           183.72380           161.45950           162.45180           135.15690           179.36840           186.74450           248.10470           265.62710           238.58950           264.24950           203.16600           209.40680           215.82010           208.91780           197.91210           190.19140           183.95220           181.42330           180.50990           185.57880           191.76310           186.70990           182.88360           181.81740           187.00510           193.42810           189.18420           184.21650           186.45420           219.56930           229.13490           212.79210           181.98360           183.90840           176.38610           175.09420           177.20930           176.34910           166.49970           161.33250           180.30240           187.54970           206.93790           229.43780           201.02810           170.77770           169.64050           175.71070           146.56060           136.27310           131.06320           141.59580           163.26780           159.08730           171.71560           149.74510           188.11570           182.65460           204.50620           201.17670           197.88890           155.04950           153.56220           132.46410           160.20570           195.68630           242.44860           271.78260           253.21440           248.02710           205.37890           209.82360           214.39140           210.92500           204.99650           195.00620           182.89900           174.53260           167.70390           168.50470           171.42170           185.49120           194.01470           190.32800           186.24360           183.52960           191.12310           193.61320           193.17710           192.88610           191.74910           188.05230           183.39610           185.39410           177.06570           182.86080           192.93180           195.42980           185.94410           182.22870           204.04240           222.59380           241.78540           234.72120           205.11630           192.95580           176.99120           165.70160           159.15920           149.69260           138.22470           149.63390           160.33670           167.35490           146.82730           144.50360           165.69150           169.76420           222.68870           205.52370           191.35270           169.08770           156.09300           135.53080           143.43690           191.19260           223.85610           275.58150           305.93300           231.72280           189.46500           191.24160           193.06730           200.63200           210.05540           203.33510           188.68290           169.36390           147.66080           143.37690           143.44380           157.81850           170.66140           179.81360           172.08390           160.79140           176.36890           194.64400           208.75190           199.33600           207.34110           212.12830           205.33160           183.07240           176.55930           181.12770           192.44340           186.72790           164.65530           165.57610           198.14620           237.78540           253.03100           247.28490           216.45290           194.17600           195.46240           183.86720           154.87040           145.46070           149.37450           159.31360           180.47070           179.39920           153.07770           144.04410           161.78040           182.44550           205.44180           210.20210           186.19730           142.89740           164.89660           132.87800           145.99530           189.75290           226.51760           296.19780           280.26600           234.76960           165.11800           170.15840           175.33810           174.66970           172.24540           166.00400           157.81920           147.78320           136.76440           137.54120           141.19680           150.03390           156.62800           158.18850           171.66470           189.46570           199.42110           187.49370           167.86500           168.86070           179.15700           184.43440           180.31320           169.55900           184.29440           198.15590           208.94790           207.81120           189.88930           177.58720           200.92790           232.02400           273.37170           293.05130           207.10630           187.24320           186.26490           187.73010           158.74090           152.52730           135.99130           140.16450           163.39240           186.60030           152.82370           137.53790           166.05940           211.06400           204.41530           240.62430           170.74220           141.81000           140.87750           131.60490           144.41150           171.37940           221.57690           378.65100           280.91370           300.54630           151.18720           157.56780           164.12490           172.12830           180.71990           186.00460           189.76180           172.73880           146.17980           137.49960           133.37210           149.44370           159.41680           155.94490           156.32290           160.14740           174.95800           179.15950           174.33280           157.94130           162.33200           177.47440           192.06090           177.34240           192.96390           203.68430           209.36120           209.93260           209.36600           205.78720           191.65470           210.81340           280.77930           311.67300           243.23700           204.15010           187.60900           175.31290           154.42590           169.95720           162.57900           168.32470           169.44790           156.09010           148.81420           144.85710           145.95690           176.30260           225.15230           193.45620           179.12450           139.62220           124.11220           129.28130           135.48550           174.45110           213.01610           346.61140           254.30520           273.80820           154.40830           161.80510           169.40660           169.26170           166.80570           166.66590           167.64810           167.86540           167.74500           164.38370           160.35260           160.74830           157.24950           145.46430           143.11100           147.04560           164.20480           170.95090           168.99180           156.26090           165.12770           188.52590           214.10400           205.56480           208.63700           199.86530           188.98160           185.57840           207.93600           235.27180           205.87350           215.55210           275.04690           301.28900           265.32560           214.52390           183.62850           182.67600           183.39880           175.01470           185.72770           167.93700           197.82120           155.61600           162.92170           164.80490           156.35480           194.61070           227.48010           181.68410           177.34970           140.68180           114.78020           124.43460           136.32630           172.28130           212.34850           322.35150           278.94060           232.92230           170.48520           167.73050           164.89960           157.43990           148.45440           150.27990           157.37820           162.50910           166.84270           164.14780           160.30020           172.51410           177.99010           168.78000           167.01590           171.31080           193.11360           208.25380           213.04130           191.41960           175.19460           180.73800           199.82050           182.40140           203.39230           215.34930           194.83860           185.85320           216.47360           229.33210           207.67790           239.08700           283.96100           265.54670           253.01390           199.57750           168.51820           188.65470           173.98600           166.73600           186.59990           189.10670           182.20520           155.15770           166.27530           146.11510           140.44920           196.07230           215.68490           211.28050           191.84960           159.06440           129.99900           123.99430           124.78080           153.11110           203.07860           272.64910           292.74610           240.44590           166.16150           163.05550           159.86380           154.79640           149.07060           151.59580           158.16160           164.01970           169.65370           167.36000           163.54590           170.43120           171.09020           158.31140           156.63730           162.25970           182.68720           192.02760           191.50640           177.07900           178.58920           193.97460           216.44360           222.09170           228.81640           220.95840           193.22230           179.96380           199.15900           208.95090           198.72420           230.44740           273.60020           292.45140           301.99030           248.83570           185.21860           174.09130           173.96320           184.06870           180.99810           162.41830           174.48670           148.43260           166.21910           159.90540           163.10400           172.98300           222.24850           211.27820           190.35630           158.30440           133.95090           123.34220           125.45360           170.02580           232.16130           245.65430           247.62880           233.96650           148.67500           146.71020           144.69110           141.58440           138.09260           156.78430           186.51340           192.07230           186.93650           176.67900           165.49250           168.57820           168.07560           159.85540           167.30420           181.41450           192.23770           191.70240           183.45270           170.79610           192.91380           214.49480           220.99640           203.40310           227.81410           220.73430           195.20080           192.05950           215.91860           230.23090           233.97300           218.70000           246.49910           285.80010           294.33490           239.02830           172.14140           196.78930           188.22710           179.69960           184.78320           184.89050           157.02880           153.03920           161.44250           159.79850           166.62370           186.46710           203.05070           189.37650           186.35510           161.88260           131.57670           136.02510           140.76010           143.72180           253.52860           278.01410           288.16420           236.05020           164.89030           157.44740           149.79860           148.67230           149.46740           160.48080           176.61350           183.85890           187.25320           183.25820           177.39140           168.39690           163.00130           165.52500           171.37540           178.97570           187.73950           190.49530           187.72910           176.75500           183.63990           187.67700           186.28230           193.51230           185.70520           178.39390           179.59830           190.19560           217.88870           268.74760           294.80730           265.42870           292.21970           311.56550           294.05190           261.26340           204.07540           206.23270           156.52340           147.80710           157.34380           177.07500           171.90490           180.31900           185.07950           166.57610           158.22230           194.50220           193.86990           204.46580           210.99920           162.84140           145.75380           158.28370           149.29920           147.40220           241.47630           265.92220           228.75210           284.72210           161.07050           158.85990           156.58810           156.39140           156.80900           166.04680           179.69940           191.44100           202.51390           183.78960           158.46800           152.14620           153.57930           171.68090           176.88030           175.40400           168.13380           176.57100           193.59140           208.13890           197.66050           198.19650           212.09810           206.10620           180.79030           164.47070           162.11110           185.57050           212.53400           227.54940           276.66130           294.80640           317.16960           332.83770           310.57450           266.82280           239.01750           213.84680           179.47530           165.53890           158.05880           175.80260           215.75020           180.55740           199.23580           151.08050           147.91750           178.09750           174.46840           186.48090           172.16550           165.27070           157.58270           149.84240           135.45520           141.25430           238.55810           236.19880           262.43340           201.85630           140.94480           155.35580           170.16540           167.82280           160.32290           160.92000           165.45500           165.32970           163.12350           154.73850           145.75060           167.68760           190.79870           215.73840           213.77760           199.89140           187.71580           189.96850           200.03260           207.64120           199.53450           191.40830           187.65190           185.91790           175.62340           170.15880           167.86780           192.43420           229.50490           237.09970           251.39900           271.47450           308.66770           355.55530           328.97160           263.38590           231.57470           196.22490           170.70370           160.67580           163.49280           186.72450           198.18130           170.91100           162.89540           144.62600           148.58570           175.21790           185.02420           181.45070           180.39070           169.24130           162.04650           130.18480           145.12640           143.99630           206.61790           243.77480           201.55530           182.58080           153.35320           156.81040           160.36310           162.83840           165.04120           161.22030           154.42050           153.04760           154.07400           160.35430           168.26770           185.68630           201.63900           213.94850           204.43960           188.08310           191.92800           194.99430           197.89480           201.89640           191.52670           186.33770           189.43810           188.73030           164.33320           162.90210           178.46510           203.30490           218.04010           217.32520           255.47910           335.31210           345.12790           315.64130           350.28720           292.72290           246.31510           186.17220           168.17500           172.84670           167.52720           166.94200           176.42890           164.94410           168.83360           155.79700           144.03500           163.74360           185.88650           164.87620           158.73060           164.95150           136.69250           131.23630           146.71880           156.36240           163.06370           219.28340           246.58010           179.27230           133.78850           138.51990           143.38210           154.75940           168.30170           163.87810           150.67200           146.62120           146.59100           154.64330           164.73040           175.45260           184.04790           187.79850           175.69370           161.34430           179.69280           184.95270           184.20400           189.88630           205.62530           200.68260           179.52770           194.70780           179.06410           187.29630           200.17140           193.70830           185.17250           222.20090           294.42890           344.25540           311.73970           304.42690           400.23970           417.02880           337.12370           230.74610           189.46570           183.78680           185.65560           160.79310           177.07820           180.89870           161.37990           158.54280           133.27980           174.97450           201.96920           187.08700           151.84830           173.30610           173.38030           134.76910           163.90270           138.49290           150.19140           204.71270           234.44390           195.38740           133.92790           134.32590           134.73480           156.73320           185.59700           189.93880           182.44460           167.67720           149.43430           152.13070           159.52780           162.38330           163.86580           162.34400           163.81830           167.22460           174.25020           186.70570           202.41740           218.25120           196.24650           178.93080           179.78910           195.75440           172.71520           168.02320           178.83450           177.79920           169.05520           206.59680           289.47400           339.63480           328.98340           316.80520           439.89570           486.92950           351.66080           302.21410           239.36630           203.25490           190.40150           181.13990           172.20970           184.58760           179.71150           163.52970           146.32990           159.83510           185.70500           206.34880           157.96850           164.66460           153.26270           135.73910           143.21370           150.10750           144.75480           174.74840           221.73860           223.34080           146.59800           144.59590           142.53850           151.70580           164.39810           175.78350           186.70110           175.70240           154.75520           146.35330           141.12950           151.06070           161.99640           174.76530           191.29330           204.84450           186.99860           196.65620           215.06810           203.93010           187.40470           172.47970           163.16370           164.12970           152.93110           153.50850           168.59070           170.54890           170.98820           217.37440           286.22970           363.68900           384.50280           355.73620           439.625