# vtk DataFile Version 3.0
Output from R2
ASCII
DATASET UNSTRUCTURED_GRID
POINTS       3216 double
    -0.60300     0.30500   0.
    -0.60300    -0.30500   0.
    -0.60300    -0.95100   0.
    -0.60300    -1.67600   0.
    -0.60300    -2.48900   0.
    -0.60300    -3.40100   0.
    -0.60300    -4.42500   0.
    -0.60300    -5.57300   0.
    -0.60300    -6.86100   0.
    -0.60300    -8.30600   0.
    -0.60300    -9.92800   0.
    -0.60300   -11.74600   0.
    -0.60300   -13.78600   0.
    -0.60300   -16.07500   0.
    -0.60300   -18.64300   0.
    -0.60300   -21.35700   0.
     0.60300     0.30500   0.
     0.60300    -0.30500   0.
     0.60300    -0.95100   0.
     0.60300    -1.67600   0.
     0.60300    -2.48900   0.
     0.60300    -3.40100   0.
     0.60300    -4.42500   0.
     0.60300    -5.57300   0.
     0.60300    -6.86100   0.
     0.60300    -8.30600   0.
     0.60300    -9.92800   0.
     0.60300   -11.74600   0.
     0.60300   -13.78600   0.
     0.60300   -16.07500   0.
     0.60300   -18.64300   0.
     0.60300   -21.35700   0.
     1.80900     0.30500   0.
     1.80900    -0.30500   0.
     1.80900    -0.95100   0.
     1.80900    -1.67600   0.
     1.80900    -2.48900   0.
     1.80900    -3.40100   0.
     1.80900    -4.42500   0.
     1.80900    -5.57300   0.
     1.80900    -6.86100   0.
     1.80900    -8.30600   0.
     1.80900    -9.92800   0.
     1.80900   -11.74600   0.
     1.80900   -13.78600   0.
     1.80900   -16.07500   0.
     1.80900   -18.64300   0.
     1.80900   -21.35700   0.
     3.01500     0.30500   0.
     3.01500    -0.30500   0.
     3.01500    -0.95100   0.
     3.01500    -1.67600   0.
     3.01500    -2.48900   0.
     3.01500    -3.40100   0.
     3.01500    -4.42500   0.
     3.01500    -5.57300   0.
     3.01500    -6.86100   0.
     3.01500    -8.30600   0.
     3.01500    -9.92800   0.
     3.01500   -11.74600   0.
     3.01500   -13.78600   0.
     3.01500   -16.07500   0.
     3.01500   -18.64300   0.
     3.01500   -21.35700   0.
     4.22100     0.30500   0.
     4.22100    -0.30500   0.
     4.22100    -0.95100   0.
     4.22100    -1.67600   0.
     4.22100    -2.48900   0.
     4.22100    -3.40100   0.
     4.22100    -4.42500   0.
     4.22100    -5.57300   0.
     4.22100    -6.86100   0.
     4.22100    -8.30600   0.
     4.22100    -9.92800   0.
     4.22100   -11.74600   0.
     4.22100   -13.78600   0.
     4.22100   -16.07500   0.
     4.22100   -18.64300   0.
     4.22100   -21.35700   0.
     5.42700     0.30500   0.
     5.42700    -0.30500   0.
     5.42700    -0.95100   0.
     5.42700    -1.67600   0.
     5.42700    -2.48900   0.
     5.42700    -3.40100   0.
     5.42700    -4.42500   0.
     5.42700    -5.57300   0.
     5.42700    -6.86100   0.
     5.42700    -8.30600   0.
     5.42700    -9.92800   0.
     5.42700   -11.74600   0.
     5.42700   -13.78600   0.
     5.42700   -16.07500   0.
     5.42700   -18.64300   0.
     5.42700   -21.35700   0.
     6.63300     0.30500   0.
     6.63300    -0.30500   0.
     6.63300    -0.95100   0.
     6.63300    -1.67600   0.
     6.63300    -2.48900   0.
     6.63300    -3.40100   0.
     6.63300    -4.42500   0.
     6.63300    -5.57300   0.
     6.63300    -6.86100   0.
     6.63300    -8.30600   0.
     6.63300    -9.92800   0.
     6.63300   -11.74600   0.
     6.63300   -13.78600   0.
     6.63300   -16.07500   0.
     6.63300   -18.64300   0.
     6.63300   -21.35700   0.
     7.83900     0.30500   0.
     7.83900    -0.30500   0.
     7.83900    -0.95100   0.
     7.83900    -1.67600   0.
     7.83900    -2.48900   0.
     7.83900    -3.40100   0.
     7.83900    -4.42500   0.
     7.83900    -5.57300   0.
     7.83900    -6.86100   0.
     7.83900    -8.30600   0.
     7.83900    -9.92800   0.
     7.83900   -11.74600   0.
     7.83900   -13.78600   0.
     7.83900   -16.07500   0.
     7.83900   -18.64300   0.
     7.83900   -21.35700   0.
     9.04500     0.30500   0.
     9.04500    -0.30500   0.
     9.04500    -0.95100   0.
     9.04500    -1.67600   0.
     9.04500    -2.48900   0.
     9.04500    -3.40100   0.
     9.04500    -4.42500   0.
     9.04500    -5.57300   0.
     9.04500    -6.86100   0.
     9.04500    -8.30600   0.
     9.04500    -9.92800   0.
     9.04500   -11.74600   0.
     9.04500   -13.78600   0.
     9.04500   -16.07500   0.
     9.04500   -18.64300   0.
     9.04500   -21.35700   0.
    10.25100     0.30500   0.
    10.25100    -0.30500   0.
    10.25100    -0.95100   0.
    10.25100    -1.67600   0.
    10.25100    -2.48900   0.
    10.25100    -3.40100   0.
    10.25100    -4.42500   0.
    10.25100    -5.57300   0.
    10.25100    -6.86100   0.
    10.25100    -8.30600   0.
    10.25100    -9.92800   0.
    10.25100   -11.74600   0.
    10.25100   -13.78600   0.
    10.25100   -16.07500   0.
    10.25100   -18.64300   0.
    10.25100   -21.35700   0.
    11.45700     0.30500   0.
    11.45700    -0.30500   0.
    11.45700    -0.95100   0.
    11.45700    -1.67600   0.
    11.45700    -2.48900   0.
    11.45700    -3.40100   0.
    11.45700    -4.42500   0.
    11.45700    -5.57300   0.
    11.45700    -6.86100   0.
    11.45700    -8.30600   0.
    11.45700    -9.92800   0.
    11.45700   -11.74600   0.
    11.45700   -13.78600   0.
    11.45700   -16.07500   0.
    11.45700   -18.64300   0.
    11.45700   -21.35700   0.
    12.66300     0.30500   0.
    12.66300    -0.30500   0.
    12.66300    -0.95100   0.
    12.66300    -1.67600   0.
    12.66300    -2.48900   0.
    12.66300    -3.40100   0.
    12.66300    -4.42500   0.
    12.66300    -5.57300   0.
    12.66300    -6.86100   0.
    12.66300    -8.30600   0.
    12.66300    -9.92800   0.
    12.66300   -11.74600   0.
    12.66300   -13.78600   0.
    12.66300   -16.07500   0.
    12.66300   -18.64300   0.
    12.66300   -21.35700   0.
    13.86900     0.30500   0.
    13.86900    -0.30500   0.
    13.86900    -0.95100   0.
    13.86900    -1.67600   0.
    13.86900    -2.48900   0.
    13.86900    -3.40100   0.
    13.86900    -4.42500   0.
    13.86900    -5.57300   0.
    13.86900    -6.86100   0.
    13.86900    -8.30600   0.
    13.86900    -9.92800   0.
    13.86900   -11.74600   0.
    13.86900   -13.78600   0.
    13.86900   -16.07500   0.
    13.86900   -18.64300   0.
    13.86900   -21.35700   0.
    15.07500     0.30500   0.
    15.07500    -0.30500   0.
    15.07500    -0.95100   0.
    15.07500    -1.67600   0.
    15.07500    -2.48900   0.
    15.07500    -3.40100   0.
    15.07500    -4.42500   0.
    15.07500    -5.57300   0.
    15.07500    -6.86100   0.
    15.07500    -8.30600   0.
    15.07500    -9.92800   0.
    15.07500   -11.74600   0.
    15.07500   -13.78600   0.
    15.07500   -16.07500   0.
    15.07500   -18.64300   0.
    15.07500   -21.35700   0.
    16.28100     0.30500   0.
    16.28100    -0.30500   0.
    16.28100    -0.95100   0.
    16.28100    -1.67600   0.
    16.28100    -2.48900   0.
    16.28100    -3.40100   0.
    16.28100    -4.42500   0.
    16.28100    -5.57300   0.
    16.28100    -6.86100   0.
    16.28100    -8.30600   0.
    16.28100    -9.92800   0.
    16.28100   -11.74600   0.
    16.28100   -13.78600   0.
    16.28100   -16.07500   0.
    16.28100   -18.64300   0.
    16.28100   -21.35700   0.
    17.48700     0.30500   0.
    17.48700    -0.30500   0.
    17.48700    -0.95100   0.
    17.48700    -1.67600   0.
    17.48700    -2.48900   0.
    17.48700    -3.40100   0.
    17.48700    -4.42500   0.
    17.48700    -5.57300   0.
    17.48700    -6.86100   0.
    17.48700    -8.30600   0.
    17.48700    -9.92800   0.
    17.48700   -11.74600   0.
    17.48700   -13.78600   0.
    17.48700   -16.07500   0.
    17.48700   -18.64300   0.
    17.48700   -21.35700   0.
    18.69300     0.30500   0.
    18.69300    -0.30500   0.
    18.69300    -0.95100   0.
    18.69300    -1.67600   0.
    18.69300    -2.48900   0.
    18.69300    -3.40100   0.
    18.69300    -4.42500   0.
    18.69300    -5.57300   0.
    18.69300    -6.86100   0.
    18.69300    -8.30600   0.
    18.69300    -9.92800   0.
    18.69300   -11.74600   0.
    18.69300   -13.78600   0.
    18.69300   -16.07500   0.
    18.69300   -18.64300   0.
    18.69300   -21.35700   0.
    19.89900     0.30500   0.
    19.89900    -0.30500   0.
    19.89900    -0.95100   0.
    19.89900    -1.67600   0.
    19.89900    -2.48900   0.
    19.89900    -3.40100   0.
    19.89900    -4.42500   0.
    19.89900    -5.57300   0.
    19.89900    -6.86100   0.
    19.89900    -8.30600   0.
    19.89900    -9.92800   0.
    19.89900   -11.74600   0.
    19.89900   -13.78600   0.
    19.89900   -16.07500   0.
    19.89900   -18.64300   0.
    19.89900   -21.35700   0.
    21.10600     0.30500   0.
    21.10600    -0.30500   0.
    21.10600    -0.95100   0.
    21.10600    -1.67600   0.
    21.10600    -2.48900   0.
    21.10600    -3.40100   0.
    21.10600    -4.42500   0.
    21.10600    -5.57300   0.
    21.10600    -6.86100   0.
    21.10600    -8.30600   0.
    21.10600    -9.92800   0.
    21.10600   -11.74600   0.
    21.10600   -13.78600   0.
    21.10600   -16.07500   0.
    21.10600   -18.64300   0.
    21.10600   -21.35700   0.
    22.31200     0.30500   0.
    22.31200    -0.30500   0.
    22.31200    -0.95100   0.
    22.31200    -1.67600   0.
    22.31200    -2.48900   0.
    22.31200    -3.40100   0.
    22.31200    -4.42500   0.
    22.31200    -5.57300   0.
    22.31200    -6.86100   0.
    22.31200    -8.30600   0.
    22.31200    -9.92800   0.
    22.31200   -11.74600   0.
    22.31200   -13.78600   0.
    22.31200   -16.07500   0.
    22.31200   -18.64300   0.
[...]
POINT_DATA      3216
CELL_DATA      3000
SCALARS Resistivity(Ohm-m) double 1
LOOKUP_TABLE default
            53.29175            55.98236            58.85337            61.48691            64.31406            67.41811            70.73009            74.04652            77.16168            79.89674            82.17513            83.96311            85.28654            86.20512            86.78716            50.69066            52.57511            55.38152            57.53013            60.18205            63.60956            67.51691            71.54670            75.32590            78.60766            81.29998            83.38981            84.92196            85.97853            86.65565            58.31035            59.63083            58.19934            57.52071            58.31570            61.06613            65.01923            69.46209            73.74400            77.47851            80.51389            82.84195            84.54138            85.71135            86.46247            59.06386            63.56574            62.35047            59.66330            58.55511            60.11821            63.69835            68.18776            72.70051            76.68398            79.91431            82.38396            84.17337            85.41705            86.22275            62.88818            60.28768            61.27740            60.78815            59.73184            60.54718            63.56089            67.84393            72.33624            76.34960            79.59247            82.06383            83.86346            85.10628            85.92965            60.24244            59.00210            61.44054            62.04221            61.29004            61.79939            64.48573            68.44445            72.70629            76.51290            79.57829            81.90674            83.59880            84.78924            85.59880            61.35057            64.33263            64.65905            63.57157            62.79034            63.34346            65.97354            69.72960            73.66773            77.12357            79.85954            81.90150            83.39357            84.45874            85.21531            60.56331            62.20533            62.89980            62.92154            63.31928            64.67530            67.70475            71.42727            75.06917            78.10132            80.36872            82.01170            83.21568            84.11189            84.78810            66.19276            64.02551            63.10962            62.95029            63.79741            65.95481            69.36665            73.23700            76.64813            79.21121            80.98549            82.18154            83.04910            83.73770            84.31392            67.67693            68.94952            67.46449            65.73264            65.26574            67.16517            70.77493            74.87122            78.17081            80.35926            81.63365            82.36195            82.86926            83.32548            83.78612            64.41938            66.38884            68.97597            68.24597            66.77557            68.04271            71.77154            76.03741            79.42091            81.37446            82.26400            82.54396            82.67245            82.88246            83.20852            59.00715            63.07739            67.92268            68.17217            66.58301            67.85191            71.79452            76.58364            80.28850            82.25102            82.84957            82.72627            82.48102            82.42318            82.60613            63.25198            63.84296            65.49712            65.21622            64.44602            66.42582            71.14525            76.61944            80.88694            83.07450            83.47933            82.97202            82.33266            81.98203            82.00003            64.57134            63.03475            62.83657            62.34713            62.35696            64.96657            70.25499            76.50719            81.52465            84.04022            84.29059            83.37220            82.28880            81.60164            81.42408            56.48773            60.85543            63.04572            62.84935            62.50946            64.64628            69.99022            76.82210            82.51858            85.35883            85.42524            84.02608            82.41756            81.32708            80.91346            55.47408            58.33146            62.97611            64.42886            63.94458            65.51663            70.60562            77.77745            84.06146            87.16858            87.00942            85.01105            82.77479            81.20374            80.50469            55.45724            57.13116            61.27003            64.29806            65.04114            66.60018            71.60698            79.21677            86.17915            89.59752            89.08908            86.36880            83.38772            81.26293            80.22084            54.93321            55.76460            58.76064            63.09402            65.42710            67.37363            72.56160            80.88440            88.72356            92.51924            91.61548            88.08026            84.26671            81.50805            80.06777            58.20186            56.16035            59.19968            64.12764            66.20639            67.64005            72.99649            82.32280            91.40446            95.76965            94.50992            90.08861            85.35624            81.91040            80.03674            56.45047            57.50078            62.77593            67.13633            66.76174            66.78640            72.41702            83.14053            93.89049            99.12848            97.60931            92.27852            86.58882            82.42827            80.10435            52.77891            56.17328            64.37897            68.39052            65.73449            64.65264            70.89161            83.33632            96.03730           102.38349           100.73405            94.54116            87.90418            83.01802            80.24313            49.68308            56.01758            65.56655            68.67438            64.13935            62.35035            69.22156            83.29304            97.89443           105.42355           103.73800            96.75668            89.22124            83.64594            80.43259            50.17100            55.64753            66.11875            69.00916            63.39192            61.05672            68.22568            83.41697            99.54126           108.06934           106.40243            98.75433            90.43102            84.24213            80.63597            51.99049            55.66161            65.28533            68.45676            63.10525            60.76199            68.02553            83.78135           100.89304           110.21849           108.61729           100.45825            91.46996            84.77288            80.82895            49.78929            54.49672            62.50391            66.06200            62.32091            60.78065            68.20434            84.15099           101.77105           111.67872           110.21935           101.75874            92.32543            85.23044            81.01079            56.02435            55.20456            60.00105            63.41578            61.39882            60.88017            68.45438            84.30742           102.05524           112.34469           111.12502           102.62759            92.95015            85.58374            81.15687            51.03111            53.32445            57.81277            61.58984            61.14321            61.42923            68.90150            84.29571           101.80759           112.28956           111.45118           103.10078            93.35998            85.84026            81.28346            54.89020            52.32129            56.35903            61.27714            62.37616            63.04820            69.93388            84.38904           101.26084           111.69906           111.22669           103.19039            93.53884            85.99228            81.38254            53.44263            52.27594            56.55944            62.74672            65.19583            65.83775            71.68677            84.81610           100.68443           110.87822           110.65866           103.02076            93.57864            86.09385            81.47876            64.49937            55.72065            57.21362            63.64008            67.72092            68.79069            73.78679            85.60195           100.30648           109.98780           109.97853           102.66006            93.51131            86.15371            81.57033            58.16391            55.77365            55.96673            62.03408            68.29264            70.94569            75.91188            86.76104           100.26715           109.27518           109.24035           102.23147            93.32708            86.14543            81.63994            69.53528            58.78248            54.49608            59.57667            67.90302            72.80994            78.40338            88.50163           100.77575           108.82269           108.52751           101.70080            93.07901            86.07382            81.68353            64.65860            58.26165            53.33728            58.64076            68.87901            75.84479            81.95735            91.10110           101.83908           108.60378           107.74760           101.00586            92.65849            85.88770            81.66410            67.31103            59.54956            54.14478            60.59051            72.46406            80.73174            86.69250            94.43537           103.22621           108.43766           106.85788           100.09126            92.03889            85.58317            81.56457            69.62636            59.07821            55.75145            64.12684            77.36347            86.25461            91.60801            97.75579           104.52185           108.01204           105.65651            98.90948            91.20430            85.10929            81.35486            67.66104            60.60325            58.46864            67.17839            80.62712            89.93789            95.10814           100.13569           105.16686           107.12991           104.06398            97.37809            90.09604            84.43883            81.00958            65.19154            59.62940            58.92047            67.20382            80.18761            90.31656            96.39720           101.20068           105.05946           105.76649           102.09298            95.55277            88.76210            83.59327            80.54499            65.38969            61.23700            60.02993            65.93566            77.44762            88.52457            96.31504           101.55330           104.59169           104.14665            99.94609            93.53227            87.24511            82.59222            79.95513            62.98889            62.25781            59.93874            63.53358            74.33133            86.97746            96.69648           102.39090           104.39461           102.69703            97.80826            91.45505            85.60548            81.48252            79.27404            65.03528            65.32081            60.11652            62.20177            73.59483            88.15628            99.23622           104.62361           105.03934           101.63184            95.84882            89.40378            83.92609            80.30177            78.54031            74.18472            66.47204            60.80015            63.90973            76.56200            92.62348           104.10639           108.18925           106.34032           100.98197            94.09454            87.43548            82.26661            79.10229            77.76192            70.37326            63.00866            60.73889            65.96747            80.15329            97.41446           109.02903           111.66513           107.67772           100.41980            92.48347            85.58164            80.64871            77.88953            76.95016            70.99018            69.38656            63.07671            66.25269            80.85583            99.09265           111.22334           113.33657           108.08754            99.56015            90.84076            83.76292            79.04717            76.67992            76.13309            66.31556            65.64749            60.61125            64.74097            79.57309            97.57628           109.80734           112.34821           107.01762            98.12886            89.08214            81.97590            77.51967            75.51867            75.34354            78.55855            69.79632            65.22235            68.87214            80.73873            95.35076           106.01584           109.06680           104.72235            96.19000            87.20945            80.23703            76.04560            74.41177            74.59284            72.27403            72.27837            71.93649            75.57285            83.17606            92.97455           101.39217           104.97304           101.87840            94.07290            85.38036            78.59785            74.68522            73.39015            73.92013            74.63999            68.71461            72.10843            77.81217            83.35717            89.98292            97.03821           101.22490            99.22248            92.10511            83.71073            77.12427            73.46568            72.48229            73.32155            77.08623            74.23146            74.68953            77.94984            81.80744            87.09879            93.90196            98.66098            97.45254            90.73888            82.45580            75.92954            72.44616            71.71195            72.81578            82.18013            75.44959            72.50160            74.84486            79.22489            85.01497            92.33584            97.65729            96.87745            90.13721            81.64742            75.04107            71.64913            71.10255            72.44788            87.58604            77.82925            72.47363            73.71896            78.13747            84.36922            92.24404            98.00843            97.30810            90.20251            81.31600            74.48922            71.07890            70.67142            72.20117            87.93737            84.94951            78.43015            76.98590            79.43463            84.97354            93.09072            99.21012            98.39066            90.83298            81.34793            74.20004            70.73146            70.40501            72.09240            80.82064            77.57271            77.40370            78.65886            80.72945            85.64772            94.01178           100.69701            99.97808            91.89382            81.80783            74.23383            70.58947            70.30198            72.08441            82.19011            80.16944            80.32784            81.27067            81.70741            85.67801            94.37243           102.08053           101.82153            93.26734            82.48791            74.46194            70.63988            70.34796            72.20842            79.53545            80.80563            82.92302            82.96041            81.16402            84.32423            93.88326           103.16259           103.68344            94.81720            83.40813            74.89648            70.84973            70.51085            72.41911            72.03279            74.47928            80.57859            80.58607            77.68790            81.32820            92.74650           104.11583           105.63757            96.54126            84.46240            75.41700            71.14007            70.74662            72.69506            70.86750            75.81237            78.73295            76.07623            72.98670            78.19153            91.95055           105.51616           107.86778            98.36182            85.53932            76.01584            71.48844            71.03139            72.99289            72.10965            75.53383            77.26381            73.73234            70.93081            77.21873            92.64360           107.68131           110.29248           100.07872            86.48562            76.52360            71.81434            71.30623            73.28696            70.66878            76.40457            80.00453            76.20859            72.49869            78.64725            94.67565           110.13644           112.40466           101.38474            87.18244            76.88421            72.06189            71.54805            73.55421            75.01716            76.42483            79.32096            76.06214            73.07723            79.88633            96.40495           111.82425           113.52670           101.96111            87.46253            77.04384            72.21539            71.73020            73.78063            74.10229            73.39278            73.47627            71.28299            70.97634            79.58623            96.72480           111.99897           113.25994           101.59960            87.15864            76.89975            72.22983            71.85541            73.95981            68.85807            71.98715            71.74436            69.79551            70.40345            79.45959            96.20380           110.79897           111.73046           100.38057            86.43722            76.56279            72.14017            71.90169            74.07467            69.93727            71.68471            74.44815            73.32584            73.04467            80.64406            95.65550           108.84997           109.45123            98.66543            85.48987            76.12432            71.99445            71.92974            74.18839            68.60441            74.32495            78.43082            77.53401            76.37380            82.19907            95.10723           106.66623           106.96873            96.85565            84.46156            75.69260            71.89849            71.97611            74.30195            68.25526            73.66052            77.82428            78.16434            77.88404            82.90106            94.20308           104.46794           104.67436            95.25872            83.67167            75.43963            71.91869            72.09898            74.45076            74.88357            74.26035            76.55108            77.77852            78.06810            82.45524            92.70495           102.32484           102.81215            94.14687            83.30805            75.47019            72.09758            72.31955            74.65115            76.03961            78.08620            79.74769            79.09475            77.75105            80.99024            90.66575           100.35475           101.52297            93.68937            83.35517            75.76143            72.43620            72.64493            74.91256            75.70574            79.13221            82.36347            80.48370            77.062