# vtk DataFile Version 3.0
Output from R2
ASCII
DATASET UNSTRUCTURED_GRID
POINTS       3216 double
    -0.60300     0.30500   0.
    -0.60300    -0.30500   0.
    -0.60300    -0.95100   0.
    -0.60300    -1.67600   0.
    -0.60300    -2.48900   0.
    -0.60300    -3.40100   0.
    -0.60300    -4.42500   0.
    -0.60300    -5.57300   0.
    -0.60300    -6.86100   0.
    -0.60300    -8.30600   0.
    -0.60300    -9.92800   0.
    -0.60300   -11.74600   0.
    -0.60300   -13.78600   0.
    -0.60300   -16.07500   0.
    -0.60300   -18.64300   0.
    -0.60300   -21.35700   0.
     0.60300     0.30500   0.
     0.60300    -0.30500   0.
     0.60300    -0.95100   0.
     0.60300    -1.67600   0.
     0.60300    -2.48900   0.
     0.60300    -3.40100   0.
     0.60300    -4.42500   0.
     0.60300    -5.57300   0.
     0.60300    -6.86100   0.
     0.60300    -8.30600   0.
     0.60300    -9.92800   0.
     0.60300   -11.74600   0.
     0.60300   -13.78600   0.
     0.60300   -16.07500   0.
     0.60300   -18.64300   0.
     0.60300   -21.35700   0.
     1.80900     0.30500   0.
     1.80900    -0.30500   0.
     1.80900    -0.95100   0.
     1.80900    -1.67600   0.
     1.80900    -2.48900   0.
     1.80900    -3.40100   0.
     1.80900    -4.42500   0.
     1.80900    -5.57300   0.
     1.80900    -6.86100   0.
     1.80900    -8.30600   0.
     1.80900    -9.92800   0.
     1.80900   -11.74600   0.
     1.80900   -13.78600   0.
     1.80900   -16.07500   0.
     1.80900   -18.64300   0.
     1.80900   -21.35700   0.
     3.01500     0.30500   0.
     3.01500    -0.30500   0.
     3.01500    -0.95100   0.
     3.01500    -1.67600   0.
     3.01500    -2.48900   0.
     3.01500    -3.40100   0.
     3.01500    -4.42500   0.
     3.01500    -5.57300   0.
     3.01500    -6.86100   0.
     3.01500    -8.30600   0.
     3.01500    -9.92800   0.
     3.01500   -11.74600   0.
     3.01500   -13.78600   0.
     3.01500   -16.07500   0.
     3.01500   -18.64300   0.
     3.01500   -21.35700   0.
     4.22100     0.30500   0.
     4.22100    -0.30500   0.
     4.22100    -0.95100   0.
     4.22100    -1.67600   0.
     4.22100    -2.48900   0.
     4.22100    -3.40100   0.
     4.22100    -4.42500   0.
     4.22100    -5.57300   0.
     4.22100    -6.86100   0.
     4.22100    -8.30600   0.
     4.22100    -9.92800   0.
     4.22100   -11.74600   0.
     4.22100   -13.78600   0.
     4.22100   -16.07500   0.
     4.22100   -18.64300   0.
     4.22100   -21.35700   0.
     5.42700     0.30500   0.
     5.42700    -0.30500   0.
     5.42700    -0.95100   0.
     5.42700    -1.67600   0.
     5.42700    -2.48900   0.
     5.42700    -3.40100   0.
     5.42700    -4.42500   0.
     5.42700    -5.57300   0.
     5.42700    -6.86100   0.
     5.42700    -8.30600   0.
     5.42700    -9.92800   0.
     5.42700   -11.74600   0.
     5.42700   -13.78600   0.
     5.42700   -16.07500   0.
     5.42700   -18.64300   0.
     5.42700   -21.35700   0.
     6.63300     0.30500   0.
     6.63300    -0.30500   0.
     6.63300    -0.95100   0.
     6.63300    -1.67600   0.
     6.63300    -2.48900   0.
     6.63300    -3.40100   0.
     6.63300    -4.42500   0.
     6.63300    -5.57300   0.
     6.63300    -6.86100   0.
     6.63300    -8.30600   0.
     6.63300    -9.92800   0.
     6.63300   -11.74600   0.
     6.63300   -13.78600   0.
     6.63300   -16.07500   0.
     6.63300   -18.64300   0.
     6.63300   -21.35700   0.
     7.83900     0.30500   0.
     7.83900    -0.30500   0.
     7.83900    -0.95100   0.
     7.83900    -1.67600   0.
     7.83900    -2.48900   0.
     7.83900    -3.40100   0.
     7.83900    -4.42500   0.
     7.83900    -5.57300   0.
     7.83900    -6.86100   0.
     7.83900    -8.30600   0.
     7.83900    -9.92800   0.
     7.83900   -11.74600   0.
     7.83900   -13.78600   0.
     7.83900   -16.07500   0.
     7.83900   -18.64300   0.
     7.83900   -21.35700   0.
     9.04500     0.30500   0.
     9.04500    -0.30500   0.
     9.04500    -0.95100   0.
     9.04500    -1.67600   0.
     9.04500    -2.48900   0.
     9.04500    -3.40100   0.
     9.04500    -4.42500   0.
     9.04500    -5.57300   0.
     9.04500    -6.86100   0.
     9.04500    -8.30600   0.
     9.04500    -9.92800   0.
     9.04500   -11.74600   0.
     9.04500   -13.78600   0.
     9.04500   -16.07500   0.
     9.04500   -18.64300   0.
     9.04500   -21.35700   0.
    10.25100     0.30500   0.
    10.25100    -0.30500   0.
    10.25100    -0.95100   0.
    10.25100    -1.67600   0.
    10.25100    -2.48900   0.
    10.25100    -3.40100   0.
    10.25100    -4.42500   0.
    10.25100    -5.57300   0.
    10.25100    -6.86100   0.
    10.25100    -8.30600   0.
    10.25100    -9.92800   0.
    10.25100   -11.74600   0.
    10.25100   -13.78600   0.
    10.25100   -16.07500   0.
    10.25100   -18.64300   0.
    10.25100   -21.35700   0.
    11.45700     0.30500   0.
    11.45700    -0.30500   0.
    11.45700    -0.95100   0.
    11.45700    -1.67600   0.
    11.45700    -2.48900   0.
    11.45700    -3.40100   0.
    11.45700    -4.42500   0.
    11.45700    -5.57300   0.
    11.45700    -6.86100   0.
    11.45700    -8.30600   0.
    11.45700    -9.92800   0.
    11.45700   -11.74600   0.
    11.45700   -13.78600   0.
    11.45700   -16.07500   0.
    11.45700   -18.64300   0.
    11.45700   -21.35700   0.
    12.66300     0.30500   0.
    12.66300    -0.30500   0.
    12.66300    -0.95100   0.
    12.66300    -1.67600   0.
    12.66300    -2.48900   0.
    12.66300    -3.40100   0.
    12.66300    -4.42500   0.
    12.66300    -5.57300   0.
    12.66300    -6.86100   0.
    12.66300    -8.30600   0.
    12.66300    -9.92800   0.
    12.66300   -11.74600   0.
    12.66300   -13.78600   0.
    12.66300   -16.07500   0.
    12.66300   -18.64300   0.
    12.66300   -21.35700   0.
    13.86900     0.30500   0.
    13.86900    -0.30500   0.
    13.86900    -0.95100   0.
    13.86900    -1.67600   0.
    13.86900    -2.48900   0.
    13.86900    -3.40100   0.
    13.86900    -4.42500   0.
    13.86900    -5.57300   0.
    13.86900    -6.86100   0.
    13.86900    -8.30600   0.
    13.86900    -9.92800   0.
    13.86900   -11.74600   0.
    13.86900   -13.78600   0.
    13.86900   -16.07500   0.
    13.86900   -18.64300   0.
    13.86900   -21.35700   0.
    15.07500     0.30500   0.
    15.07500    -0.30500   0.
    15.07500    -0.95100   0.
    15.07500    -1.67600   0.
    15.07500    -2.48900   0.
    15.07500    -3.40100   0.
    15.07500    -4.42500   0.
    15.07500    -5.57300   0.
    15.07500    -6.86100   0.
    15.07500    -8.30600   0.
    15.07500    -9.92800   0.
    15.07500   -11.74600   0.
    15.07500   -13.78600   0.
    15.07500   -16.07500   0.
    15.07500   -18.64300   0.
    15.07500   -21.35700   0.
    16.28100     0.30500   0.
    16.28100    -0.30500   0.
    16.28100    -0.95100   0.
    16.28100    -1.67600   0.
    16.28100    -2.48900   0.
    16.28100    -3.40100   0.
    16.28100    -4.42500   0.
    16.28100    -5.57300   0.
    16.28100    -6.86100   0.
    16.28100    -8.30600   0.
    16.28100    -9.92800   0.
    16.28100   -11.74600   0.
    16.28100   -13.78600   0.
    16.28100   -16.07500   0.
    16.28100   -18.64300   0.
    16.28100   -21.35700   0.
    17.48700     0.30500   0.
    17.48700    -0.30500   0.
    17.48700    -0.95100   0.
    17.48700    -1.67600   0.
    17.48700    -2.48900   0.
    17.48700    -3.40100   0.
    17.48700    -4.42500   0.
    17.48700    -5.57300   0.
    17.48700    -6.86100   0.
    17.48700    -8.30600   0.
    17.48700    -9.92800   0.
    17.48700   -11.74600   0.
    17.48700   -13.78600   0.
    17.48700   -16.07500   0.
    17.48700   -18.64300   0.
    17.48700   -21.35700   0.
    18.69300     0.30500   0.
    18.69300    -0.30500   0.
    18.69300    -0.95100   0.
    18.69300    -1.67600   0.
    18.69300    -2.48900   0.
    18.69300    -3.40100   0.
    18.69300    -4.42500   0.
    18.69300    -5.57300   0.
    18.69300    -6.86100   0.
    18.69300    -8.30600   0.
    18.69300    -9.92800   0.
    18.69300   -11.74600   0.
    18.69300   -13.78600   0.
    18.69300   -16.07500   0.
    18.69300   -18.64300   0.
    18.69300   -21.35700   0.
    19.89900     0.30500   0.
    19.89900    -0.30500   0.
    19.89900    -0.95100   0.
    19.89900    -1.67600   0.
    19.89900    -2.48900   0.
    19.89900    -3.40100   0.
    19.89900    -4.42500   0.
    19.89900    -5.57300   0.
    19.89900    -6.86100   0.
    19.89900    -8.30600   0.
    19.89900    -9.92800   0.
    19.89900   -11.74600   0.
    19.89900   -13.78600   0.
    19.89900   -16.07500   0.
    19.89900   -18.64300   0.
    19.89900   -21.35700   0.
    21.10600     0.30500   0.
    21.10600    -0.30500   0.
    21.10600    -0.95100   0.
    21.10600    -1.67600   0.
    21.10600    -2.48900   0.
    21.10600    -3.40100   0.
    21.10600    -4.42500   0.
    21.10600    -5.57300   0.
    21.10600    -6.86100   0.
    21.10600    -8.30600   0.
    21.10600    -9.92800   0.
    21.10600   -11.74600   0.
    21.10600   -13.78600   0.
    21.10600   -16.07500   0.
    21.10600   -18.64300   0.
    21.10600   -21.35700   0.
    22.31200     0.30500   0.
    22.31200    -0.30500   0.
    22.31200    -0.95100   0.
    22.31200    -1.67600   0.
    22.31200    -2.48900   0.
    22.31200    -3.40100   0.
    22.31200    -4.42500   0.
    22.31200    -5.57300   0.
    22.31200    -6.86100   0.
    22.31200    -8.30600   0.
    22.31200    -9.92800   0.
    22.31200   -11.74600   0.
    22.31200   -13.78600   0.
    22.31200   -16.07500   0.
    22.31200   -18.64300   0.
[...]
POINT_DATA      3216
CELL_DATA      3000
SCALARS Resistivity(Ohm-m) double 1
LOOKUP_TABLE default
            57.13278            51.98401            56.14787            61.65235            64.18748            62.39793            67.35160            67.27846            74.32338            93.88440            90.97073            87.85667            75.44851            75.63011           123.81790            59.90664            49.50486            62.54522            68.91024            63.28968            59.12396            64.38348            72.40389            67.48737            88.81101            83.80056            86.21883            69.52433            79.15305           122.68740            63.51234            53.65635            58.07593            65.20449            61.21271            60.22819            63.68371            70.21199            72.02026            91.45212            81.36265            90.08279            68.71458            81.29137           121.18130            62.38791            60.66451            60.98039            66.47748            61.77501            54.11158            66.75626            72.17727            77.65556            98.05861            91.06274            96.43468            68.96711            75.33564           123.14490            61.85532            60.18866            61.51766            62.68993            61.30058            56.47312            65.94959            76.40143            74.08302            92.51942            86.68039            92.48737            76.18229            71.98356           108.97200            59.76254            61.72126            59.80939            62.01756            66.11670            56.18018            74.85471            68.96018            70.46267            93.01066            90.51495            84.23895            72.01726            77.74906           110.44500            58.49655            65.68175            62.01743            64.30679            64.15409            57.16972            70.89846            72.66331            81.91316            86.20562            82.61815            89.31171            74.81916            74.54128           129.19840            61.14710            64.53377            60.52493            67.03860            66.53658            58.69100            75.00351            69.20679            79.99972            82.82194            81.36822            83.84650            69.58543            71.29970           110.73630            65.62043            65.28259            58.61898            61.70681            69.87982            60.56934            74.10779            77.46095            76.15382            86.17568            90.87325            83.97841            67.93960            71.19885           118.99660            63.81095            74.87759            65.64646            65.85382            72.98515            62.03953            77.10771            74.37427            79.82938            77.70401            92.45826            81.69929            71.91130            72.77051            93.70803            60.45702            71.60020            66.32488            64.92821            67.13145            68.07292            75.42801            75.82865            83.49794            77.43198            86.75841            80.91515            78.12083            75.91679           104.25920            55.76239            68.56267            65.24674            68.24365            71.21593            65.88165            67.37896            69.76956            83.35963            82.13073            99.23390            81.09085            83.20666            66.05578            92.20864            59.00314            68.32600            64.38569            62.05598            66.37805            66.45316            72.74143            72.00200            78.86019            84.41562           101.13980            78.73320            86.09350            72.77152            85.97573            63.77420            64.66716            61.14140            63.34522            64.21452            68.98976            74.20799            75.13767            85.85869            76.38552            90.29876            78.58173            84.89748            69.49388            89.57571            55.78154            60.87168            64.48458            58.06864            60.43031            72.46141            71.51995            71.25703            86.45723            81.11352           109.12330            90.88866            83.29528            70.04267            96.29526            54.59980            56.53294            70.30542            61.19441            63.26561            63.35962            74.03785            78.29933            82.07096            84.39660           102.30450            82.86480            80.49628            69.20873            93.09978            54.62591            56.74719            64.70855            59.32757            66.49033            66.30615            69.41575            82.58176            76.97581            86.47520           105.78950            92.96326            85.95895            67.08938            88.65890            54.33609            56.35883            58.59779            58.67066            73.72431            71.77359            66.61948            83.83394            90.04285            92.42749           102.78840            96.93516            80.89445            69.37874            91.80181            58.03896            56.62300            60.03130            60.47711            70.56140            73.52641            67.52813            77.68120            85.18503            95.61678           111.88530            93.55077            80.03441            77.98020            86.91592            58.34167            54.78871            63.68619            65.47301            72.20615            61.82600            68.01201            86.92812            95.28543            90.45582           100.85480            95.70174            83.52030            75.47997            75.68386            55.70794            54.32068            64.75640            67.72504            66.53113            66.65879            64.61960            79.84153           106.46070            95.62812           106.74280           104.39920            82.40904            71.88390            73.43625            50.45836            52.93569            67.08393            67.57837            66.80013            64.51788            62.38432           100.93780           117.69280            96.96184           113.72060           106.86160            81.98519            81.62439            71.45814            52.96336            54.08022            67.13029            68.67277            65.49096            58.17430            58.82740            94.20772           108.42530           101.74150           115.78280           105.68490            88.67488            76.15232            69.83160            52.89537            51.82843            68.29213            66.17625            68.13630            61.53605            60.36948            83.94904           110.09790           104.94510           120.43030           103.13520            79.24573            77.53249            65.54004            52.97969            54.15452            61.94642            61.22748            69.34748            59.30798            65.64614            77.76121           101.84550           106.18570           119.58830            94.40636            84.36893            68.94070            72.96303            55.54915            53.39820            59.59977            64.29855            65.67057            62.19561            65.08593            80.91220           113.93340           105.05780           133.40890           103.31970            87.33077            73.70568            71.07634            53.64089            54.57692            54.35608            64.04513            60.82534            62.62588            63.95901            81.72824           107.59630           114.49190           123.07890           123.40310            79.07303            80.21224            73.43886            51.19734            54.43924            55.44525            59.65190            63.39544            68.52508            62.24107            84.38143           105.81110           106.29540           130.37440           126.00980            79.62411            76.92075            70.67528            53.35114            53.62783            57.52599            58.65720            70.69044            68.14414            65.31436            84.99963           100.42530           108.75150           134.50570           125.05320            75.89975            76.43444            64.33218            62.14616            56.53139            58.63523            60.98950            69.54698            73.10096            71.08731            80.73340           100.10210           112.78620           120.96490           122.02380            76.57005            79.77438            60.86088            59.78040            54.64977            56.51151            58.55509            65.38394            89.71362            73.93909            76.25704            86.49361           121.45130           146.43310           119.23840            78.15156            76.74981            63.44563            66.34412            58.96847            60.02550            55.63870            65.09064            82.00363            89.44857            73.65267            89.86376           113.34600           143.64870           114.31600            75.90932            79.59471            66.96510            65.10329            56.62319            55.90028            54.95730            65.53622            80.56250            85.63107            71.33240            89.00540           113.70150           126.75470            96.92759            78.05781            73.47988            64.45934            63.91753            60.97473            58.64749            55.46085            74.09203            91.68903            95.38073            75.62074            92.01102           128.15290           147.93560            99.47004            75.72860            78.05360            68.13948            68.44652            59.12120            58.61446            56.47382            73.86593            99.00147           105.00680            79.34071            95.96029           114.82130           143.77800            97.21020            82.71850            83.24979            66.82174            62.58693            63.61031            62.94059            65.46373            75.44828           106.21740           116.81970            81.02393            94.56389           124.54760           131.57980           106.65450            83.45488            81.20910            70.25224            60.50060            62.97397            58.86888            64.76367            72.94056            96.37916           110.63520            78.37703            99.81894           118.57410           119.29400           105.67760            83.47486            89.63160            73.83064            65.12964            62.11396            62.04720            63.09336            74.26734           103.24830            99.87697            80.25698            94.52037           131.28600           113.07630            95.10514            74.40095            77.45691            74.81351            61.98430            59.84403            64.11208            64.37476            69.88837            85.94158           120.56390            86.78111            80.01949           125.30930           106.28790            83.29837            78.35457            83.12134            76.15351            64.50789            68.30223            59.27379            57.77256            77.81762            83.50072           119.30880            94.95423            87.20242           127.41800           101.05940            86.94021            74.47170            77.70115            79.39826            72.19262            65.45852            62.78755            64.34385            74.46153            85.60833           126.86220            91.66273            98.12788           118.37940           113.43540            80.55011            69.74758            76.29871            82.52271            69.29601            67.01083            57.85856            69.26164            77.92568            92.43477           145.06880           104.22700            90.16243           108.53830           100.79210            87.23980            69.05073            74.31631            78.30630            67.67601            71.40677            60.18134            69.91926            78.04896            94.87679           131.94310            98.65223            88.14421           110.86170            96.15618            77.63893            62.33996            72.96723            74.35838            68.10150            66.79446            59.47513            69.13452            71.97094            90.21918           133.90240           107.93420            92.37051           110.23230           103.14680            78.87338            66.98147            75.08412            77.84725            77.70159            67.92702            63.64097            73.39591            75.31110            93.13876           123.00280           101.04860            88.21736           103.06880           100.92240            71.88369            67.28306            72.80361            81.59120            74.15311            73.24480            71.48450            75.45015            86.67568            91.36028           115.13870            96.83627            93.87037           104.51850            98.28175            74.74482            64.27361            71.42037            74.27313            74.52266            66.48689            71.74489            80.58258            80.26188            85.58547           109.13660            94.16972            88.97656           110.56460           100.08900            74.56615            61.39316            73.87887            70.77362            78.08963            75.54943            73.40735            77.59032            82.55512            78.05561            98.56750            90.59877            89.70374           104.32210            91.44021            72.08819            58.00988            73.33525            70.94121            82.22150            73.17667            74.43723            74.26790            84.42518            89.98557            94.41928            87.50178            94.99100           104.66710            86.72085            69.59204            59.35034            77.82469            71.01378            85.88771            80.36101            72.47030            68.41193            77.48378            87.64991            92.30539            87.21684            93.83671            98.35457            87.22616            68.60109            62.01189            71.53903            74.52675            85.59334            85.19908            80.79832            74.82040            81.24840            86.57034           101.87120            84.99934           107.41890            94.87797            84.17438            71.69771            63.45806            78.27590            73.62457            81.13195            76.51610            80.11430            75.53471            83.26509            79.33060           109.88590            88.69583           108.08260            94.67020            82.72449            74.06173            58.08731            75.93731            67.92011            81.65723            79.84714            82.80017            74.99713            85.37139            90.40339            91.31701            85.35102           120.33600            97.82867            85.56206            71.89763            63.55922            76.87718            71.14207            77.84657            82.46517            83.79515            78.21292            87.17411            86.62722            92.25632            84.42157           120.18130            96.95467            80.67083            66.26611            61.65510            78.17960            73.57543            70.34021            75.05664            83.27201            74.19848            82.92932            86.49107            83.67789            91.95124           137.27450            96.06739            75.08433            75.83089            64.21448            77.82130            70.27006            71.05596            74.33318            83.81583            69.55598            81.08536            80.31067            86.33906            92.07355           122.09230           101.00090            77.03247            69.80685            68.66711            78.73802            77.65171            71.87259            75.72200            78.62509            68.28391            72.10314            72.84783            96.77059            95.41672           131.17710           109.47190            82.50354            70.34756            66.57690            73.87879            79.11182            68.76367            79.29795            78.02296            72.82623            83.32445            81.36905            92.13571           101.88180           144.31690           115.12270            85.50655            74.21650            62.71250            73.93038            76.40306            73.14968            78.57766            79.96860            73.26485            80.77587            76.25358            84.89402           100.86280           140.07380           104.09720            79.51363            71.53247            65.31682            73.66141            73.35968            70.56318            78.48789            72.01536            63.19419            76.58156            84.96721            84.65752            92.30214           158.18360            99.39739            77.81412            69.42623            62.82717            77.96843            75.95197            65.16208            76.01521            72.94704            66.86385            75.25009            86.32375            86.73369           106.02270           136.96650           100.04760            88.63292            61.44606            68.56104            73.77011            71.16209            69.53220            74.21869            70.54610            72.14126            76.63956            86.03194            92.95994            91.61765           125.95750            93.03885            81.83479            70.75746            66.66979            87.61362            64.46099            67.22659            76.44958            76.23426            80.77838            72.49726            80.36013            99.73080           103.70280           121.13230            87.59310            87.29781            62.50480            75.42341            83.36490            65.52655            68.38078            74.34627            78.27479            75.65401            81.64360            77.45870            94.58106            95.80844           126.77820            85.68820            89.52259            63.77905            81.19496            93.78656            67.07241            73.86723            76.99598            71.70013            77.88429            88.94226            77.01752           100.55190            86.85316           139.07740            80.13060            96.44301            63.91936            80.20145            84.62362            60.39183            74.44113            84.47979            71.71868            86.60151            78.18540            74.18941            91.80082            88.27708           125.45280            82.87681            94.64502            65.66170            73.37797            91.63921            62.68476            73.31419            82.41608            78.49748            82.50472            78.234