# vtk DataFile Version 3.0
Output from R2
ASCII
DATASET UNSTRUCTURED_GRID
POINTS       3216 double
    -0.60300     0.30500   0.
    -0.60300    -0.30500   0.
    -0.60300    -0.95100   0.
    -0.60300    -1.67600   0.
    -0.60300    -2.48900   0.
    -0.60300    -3.40100   0.
    -0.60300    -4.42500   0.
    -0.60300    -5.57300   0.
    -0.60300    -6.86100   0.
    -0.60300    -8.30600   0.
    -0.60300    -9.92800   0.
    -0.60300   -11.74600   0.
    -0.60300   -13.78600   0.
    -0.60300   -16.07500   0.
    -0.60300   -18.64300   0.
    -0.60300   -21.35700   0.
     0.60300     0.30500   0.
     0.60300    -0.30500   0.
     0.60300    -0.95100   0.
     0.60300    -1.67600   0.
     0.60300    -2.48900   0.
     0.60300    -3.40100   0.
     0.60300    -4.42500   0.
     0.60300    -5.57300   0.
     0.60300    -6.86100   0.
     0.60300    -8.30600   0.
     0.60300    -9.92800   0.
     0.60300   -11.74600   0.
     0.60300   -13.78600   0.
     0.60300   -16.07500   0.
     0.60300   -18.64300   0.
     0.60300   -21.35700   0.
     1.80900     0.30500   0.
     1.80900    -0.30500   0.
     1.80900    -0.95100   0.
     1.80900    -1.67600   0.
     1.80900    -2.48900   0.
     1.80900    -3.40100   0.
     1.80900    -4.42500   0.
     1.80900    -5.57300   0.
     1.80900    -6.86100   0.
     1.80900    -8.30600   0.
     1.80900    -9.92800   0.
     1.80900   -11.74600   0.
     1.80900   -13.78600   0.
     1.80900   -16.07500   0.
     1.80900   -18.64300   0.
     1.80900   -21.35700   0.
     3.01500     0.30500   0.
     3.01500    -0.30500   0.
     3.01500    -0.95100   0.
     3.01500    -1.67600   0.
     3.01500    -2.48900   0.
     3.01500    -3.40100   0.
     3.01500    -4.42500   0.
     3.01500    -5.57300   0.
     3.01500    -6.86100   0.
     3.01500    -8.30600   0.
     3.01500    -9.92800   0.
     3.01500   -11.74600   0.
     3.01500   -13.78600   0.
     3.01500   -16.07500   0.
     3.01500   -18.64300   0.
     3.01500   -21.35700   0.
     4.22100     0.30500   0.
     4.22100    -0.30500   0.
     4.22100    -0.95100   0.
     4.22100    -1.67600   0.
     4.22100    -2.48900   0.
     4.22100    -3.40100   0.
     4.22100    -4.42500   0.
     4.22100    -5.57300   0.
     4.22100    -6.86100   0.
     4.22100    -8.30600   0.
     4.22100    -9.92800   0.
     4.22100   -11.74600   0.
     4.22100   -13.78600   0.
     4.22100   -16.07500   0.
     4.22100   -18.64300   0.
     4.22100   -21.35700   0.
     5.42700     0.30500   0.
     5.42700    -0.30500   0.
     5.42700    -0.95100   0.
     5.42700    -1.67600   0.
     5.42700    -2.48900   0.
     5.42700    -3.40100   0.
     5.42700    -4.42500   0.
     5.42700    -5.57300   0.
     5.42700    -6.86100   0.
     5.42700    -8.30600   0.
     5.42700    -9.92800   0.
     5.42700   -11.74600   0.
     5.42700   -13.78600   0.
     5.42700   -16.07500   0.
     5.42700   -18.64300   0.
     5.42700   -21.35700   0.
     6.63300     0.30500   0.
     6.63300    -0.30500   0.
     6.63300    -0.95100   0.
     6.63300    -1.67600   0.
     6.63300    -2.48900   0.
     6.63300    -3.40100   0.
     6.63300    -4.42500   0.
     6.63300    -5.57300   0.
     6.63300    -6.86100   0.
     6.63300    -8.30600   0.
     6.63300    -9.92800   0.
     6.63300   -11.74600   0.
     6.63300   -13.78600   0.
     6.63300   -16.07500   0.
     6.63300   -18.64300   0.
     6.63300   -21.35700   0.
     7.83900     0.30500   0.
     7.83900    -0.30500   0.
     7.83900    -0.95100   0.
     7.83900    -1.67600   0.
     7.83900    -2.48900   0.
     7.83900    -3.40100   0.
     7.83900    -4.42500   0.
     7.83900    -5.57300   0.
     7.83900    -6.86100   0.
     7.83900    -8.30600   0.
     7.83900    -9.92800   0.
     7.83900   -11.74600   0.
     7.83900   -13.78600   0.
     7.83900   -16.07500   0.
     7.83900   -18.64300   0.
     7.83900   -21.35700   0.
     9.04500     0.30500   0.
     9.04500    -0.30500   0.
     9.04500    -0.95100   0.
     9.04500    -1.67600   0.
     9.04500    -2.48900   0.
     9.04500    -3.40100   0.
     9.04500    -4.42500   0.
     9.04500    -5.57300   0.
     9.04500    -6.86100   0.
     9.04500    -8.30600   0.
     9.04500    -9.92800   0.
     9.04500   -11.74600   0.
     9.04500   -13.78600   0.
     9.04500   -16.07500   0.
     9.04500   -18.64300   0.
     9.04500   -21.35700   0.
    10.25100     0.30500   0.
    10.25100    -0.30500   0.
    10.25100    -0.95100   0.
    10.25100    -1.67600   0.
    10.25100    -2.48900   0.
    10.25100    -3.40100   0.
    10.25100    -4.42500   0.
    10.25100    -5.57300   0.
    10.25100    -6.86100   0.
    10.25100    -8.30600   0.
    10.25100    -9.92800   0.
    10.25100   -11.74600   0.
    10.25100   -13.78600   0.
    10.25100   -16.07500   0.
    10.25100   -18.64300   0.
    10.25100   -21.35700   0.
    11.45700     0.30500   0.
    11.45700    -0.30500   0.
    11.45700    -0.95100   0.
    11.45700    -1.67600   0.
    11.45700    -2.48900   0.
    11.45700    -3.40100   0.
    11.45700    -4.42500   0.
    11.45700    -5.57300   0.
    11.45700    -6.86100   0.
    11.45700    -8.30600   0.
    11.45700    -9.92800   0.
    11.45700   -11.74600   0.
    11.45700   -13.78600   0.
    11.45700   -16.07500   0.
    11.45700   -18.64300   0.
    11.45700   -21.35700   0.
    12.66300     0.30500   0.
    12.66300    -0.30500   0.
    12.66300    -0.95100   0.
    12.66300    -1.67600   0.
    12.66300    -2.48900   0.
    12.66300    -3.40100   0.
    12.66300    -4.42500   0.
    12.66300    -5.57300   0.
    12.66300    -6.86100   0.
    12.66300    -8.30600   0.
    12.66300    -9.92800   0.
    12.66300   -11.74600   0.
    12.66300   -13.78600   0.
    12.66300   -16.07500   0.
    12.66300   -18.64300   0.
    12.66300   -21.35700   0.
    13.86900     0.30500   0.
    13.86900    -0.30500   0.
    13.86900    -0.95100   0.
    13.86900    -1.67600   0.
    13.86900    -2.48900   0.
    13.86900    -3.40100   0.
    13.86900    -4.42500   0.
    13.86900    -5.57300   0.
    13.86900    -6.86100   0.
    13.86900    -8.30600   0.
    13.86900    -9.92800   0.
    13.86900   -11.74600   0.
    13.86900   -13.78600   0.
    13.86900   -16.07500   0.
    13.86900   -18.64300   0.
    13.86900   -21.35700   0.
    15.07500     0.30500   0.
    15.07500    -0.30500   0.
    15.07500    -0.95100   0.
    15.07500    -1.67600   0.
    15.07500    -2.48900   0.
    15.07500    -3.40100   0.
    15.07500    -4.42500   0.
    15.07500    -5.57300   0.
    15.07500    -6.86100   0.
    15.07500    -8.30600   0.
    15.07500    -9.92800   0.
    15.07500   -11.74600   0.
    15.07500   -13.78600   0.
    15.07500   -16.07500   0.
    15.07500   -18.64300   0.
    15.07500   -21.35700   0.
    16.28100     0.30500   0.
    16.28100    -0.30500   0.
    16.28100    -0.95100   0.
    16.28100    -1.67600   0.
    16.28100    -2.48900   0.
    16.28100    -3.40100   0.
    16.28100    -4.42500   0.
    16.28100    -5.57300   0.
    16.28100    -6.86100   0.
    16.28100    -8.30600   0.
    16.28100    -9.92800   0.
    16.28100   -11.74600   0.
    16.28100   -13.78600   0.
    16.28100   -16.07500   0.
    16.28100   -18.64300   0.
    16.28100   -21.35700   0.
    17.48700     0.30500   0.
    17.48700    -0.30500   0.
    17.48700    -0.95100   0.
    17.48700    -1.67600   0.
    17.48700    -2.48900   0.
    17.48700    -3.40100   0.
    17.48700    -4.42500   0.
    17.48700    -5.57300   0.
    17.48700    -6.86100   0.
    17.48700    -8.30600   0.
    17.48700    -9.92800   0.
    17.48700   -11.74600   0.
    17.48700   -13.78600   0.
    17.48700   -16.07500   0.
    17.48700   -18.64300   0.
    17.48700   -21.35700   0.
    18.69300     0.30500   0.
    18.69300    -0.30500   0.
    18.69300    -0.95100   0.
    18.69300    -1.67600   0.
    18.69300    -2.48900   0.
    18.69300    -3.40100   0.
    18.69300    -4.42500   0.
    18.69300    -5.57300   0.
    18.69300    -6.86100   0.
    18.69300    -8.30600   0.
    18.69300    -9.92800   0.
    18.69300   -11.74600   0.
    18.69300   -13.78600   0.
    18.69300   -16.07500   0.
    18.69300   -18.64300   0.
    18.69300   -21.35700   0.
    19.89900     0.30500   0.
    19.89900    -0.30500   0.
    19.89900    -0.95100   0.
    19.89900    -1.67600   0.
    19.89900    -2.48900   0.
    19.89900    -3.40100   0.
    19.89900    -4.42500   0.
    19.89900    -5.57300   0.
    19.89900    -6.86100   0.
    19.89900    -8.30600   0.
    19.89900    -9.92800   0.
    19.89900   -11.74600   0.
    19.89900   -13.78600   0.
    19.89900   -16.07500   0.
    19.89900   -18.64300   0.
    19.89900   -21.35700   0.
    21.10600     0.30500   0.
    21.10600    -0.30500   0.
    21.10600    -0.95100   0.
    21.10600    -1.67600   0.
    21.10600    -2.48900   0.
    21.10600    -3.40100   0.
    21.10600    -4.42500   0.
    21.10600    -5.57300   0.
    21.10600    -6.86100   0.
    21.10600    -8.30600   0.
    21.10600    -9.92800   0.
    21.10600   -11.74600   0.
    21.10600   -13.78600   0.
    21.10600   -16.07500   0.
    21.10600   -18.64300   0.
    21.10600   -21.35700   0.
    22.31200     0.30500   0.
    22.31200    -0.30500   0.
    22.31200    -0.95100   0.
    22.31200    -1.67600   0.
    22.31200    -2.48900   0.
    22.31200    -3.40100   0.
    22.31200    -4.42500   0.
    22.31200    -5.57300   0.
    22.31200    -6.86100   0.
    22.31200    -8.30600   0.
    22.31200    -9.92800   0.
    22.31200   -11.74600   0.
    22.31200   -13.78600   0.
    22.31200   -16.07500   0.
    22.31200   -18.64300   0.
[...]
POINT_DATA      3216
CELL_DATA      3000
SCALARS Resistivity(Ohm-m) double 1
LOOKUP_TABLE default
           157.99950           129.99580           145.29770           105.20340           110.08720           134.79990           184.33170           123.98090           151.02780           146.80800           286.90680            96.09473           124.11220           146.84070           233.03350           151.77100           136.06220           154.71910           105.51820           100.36230           143.10990           214.97050           129.61610           151.71950           145.62650           239.90710            88.65579           107.48360           145.69600           198.01580           127.72750           129.87080           137.40560           110.67820           104.70720           145.82600           247.60680           147.70180           160.25820           152.05480           226.81120            84.09991           132.08010           199.86850           223.06400           150.52310           121.13330           144.98900           103.87400           103.62620           126.58670           214.26980           149.39060           166.63360           157.56590           228.53150            85.76617           128.28220           171.75280           165.19100           144.56390           109.99620           123.37160           110.54710           121.18050           144.25830           211.96820           137.30530           201.46330           163.57530           195.98470            78.11158           121.86550           200.24490           148.76170           151.08860           111.01920           124.30530           103.59170           139.35850           176.60210           153.67520           126.57960           170.55460           180.45270           209.34040            78.49872           123.95700           214.07100           144.22620           148.45230           131.52660           113.14690           110.26130           125.08630           139.38530           140.32270           130.54750           152.13170           164.38500           192.14040            76.28719            99.46730           207.77570           169.79300           146.91000           127.14930           106.67070           122.36170           122.30770           138.69560           114.01430           129.86920           133.28520           130.08860           199.85230            73.95021           116.91960           225.35390           162.19730           143.94230           143.26300           110.35760           130.86450           125.58120           141.41110           110.83830           125.00420           122.71420           145.68050           224.80050            79.11870           126.31440           234.21300           160.44060           146.71670           146.23770           116.58190           116.63180           146.77610           132.03280           105.29430           116.97740           127.25580           133.89040           251.21790            93.06818           108.56050           223.15270           164.60040           184.65760           167.47430           138.28860           141.14470           183.69850           133.02120           105.52380           121.05170           132.68320           149.84670           227.21150           100.16910           106.63990           196.78850           172.31230           182.06120           144.56580           133.92190           146.42990           156.76710           137.86940           107.62750           133.24990           144.81540           114.92020           206.67190            98.39605           129.10660           189.03690           170.40230           187.07290           171.01930           164.27000           134.69400           192.15100           148.39200            98.36381           111.35940           143.09710           112.92790           187.59950           114.50380           140.87010           176.42590           203.12850           162.97130           188.02680           153.41760           148.90370           193.94470           167.46120            97.26521           105.50930           120.52990           104.26180           186.82250           105.26640           149.51520           176.38410           199.41960           163.61070           220.01870           159.23180           173.15790           172.80660           166.08730            95.03455           101.02600           128.35910           107.38010           186.62960           110.03350           133.63340           179.83290           196.59790           180.51430           223.57820           182.62610           190.14620           236.85810           193.91950            85.47231            83.99958           108.11670           106.99180           185.83680           101.20000           114.64100           205.36710           176.63320           173.20970           201.30910           220.49040           195.22610           195.80530           182.21940            96.16722            89.07792           103.39790           103.62240           191.30370           101.48120           108.54050           206.75810           191.43880           200.75990           254.54240           186.94150           221.69790           177.13670           226.59350            94.10726            98.16391           112.30040           125.67390           185.41700           110.02780            96.44279           210.28490           162.66330           188.89030           249.39120           201.83560           197.41980           171.80540           203.93870            77.63368           101.49730           110.89800           115.22430           177.17890           109.76680            94.40286           195.80720           183.84640           176.19900           229.27070           179.61120           180.15010           231.31050           182.79520            82.86136            87.95825           125.96700           118.44000           163.00290            96.91915           105.13570           167.65610           186.41240           193.90380           223.44580           163.66200           184.40460           258.43400           163.53640            88.27581            87.38581           119.01510           130.05540           181.70790           105.04910           101.79380           163.15330           206.63700           175.20030           196.17670           173.33220           226.67950           227.58860           184.30090            89.75913            89.96934           109.21480           135.03400           173.53750           127.81890            98.35271           160.48710           216.81020           171.81680           160.63440           149.72880           221.73530           242.73680           152.28810            94.63299            92.93805           110.72510           149.74520           202.95940           123.11810            95.02791           157.62680           203.22600           160.90780           141.67420           139.59980           233.38830           220.53680           150.57820           115.61900            98.73428           123.89710           132.14500           178.36100           141.38610           104.70110           132.16640           184.94510           176.66650           127.51180           142.97370           220.98320           232.26110           155.63730           134.87080           103.75580           118.37820           139.27690           201.77520           177.83470           103.78940           142.61720           175.00260           136.86630           123.40820           148.29050           211.69590           211.68790           174.59030           123.39420           112.02440           141.23930           130.87160           242.16040           195.50160           106.89850           143.42230           208.24500           140.30440           113.11760           132.48930           219.63400           200.12460           158.59820           123.95850           118.20790           135.57790           137.41720           222.88210           163.12810           130.64060           147.23940           217.35680           117.11640           109.48990           136.00260           187.42080           213.46130           170.05080           132.32220           115.43210           158.17770           158.70460           232.50020           148.19100           128.25280           160.07980           214.20810           112.10680           105.14940           146.65180           198.20060           185.06220           182.56480           152.03300           130.98940           172.95960           158.96660           185.43640           190.28880           146.75820           146.06070           214.91690           111.33260           109.05900           127.84650           169.85630           191.58040           202.76410           147.26810           151.43510           182.11030           142.99720           175.26140           168.48610           138.07000           147.90370           217.82300           106.74070           122.48050           139.55730           175.94880           210.24000           186.04920           166.73570           164.18590           240.70380           128.86460           166.28770           186.90130           146.97230           148.86770           180.80580           116.07180           131.31390           130.61420           151.76160           181.54080           172.59870           141.13140           219.60850           237.00600           126.87230           157.81950           182.72000           137.93260           136.89580           231.58860           148.08190           135.76800           133.66690           147.28830           167.69650           197.31080           149.31320           228.32510           234.54950           120.38550           140.89960           214.02740           134.83390           115.54650           206.96380           145.99820           146.72520           131.50400           133.42500           146.37170           168.82220           142.43300           260.50220           237.55180           144.51570           146.88510           229.19390           138.85580           128.58100           214.53610           122.50500           154.26590           140.06770           121.27590           140.07780           155.28240           168.37890           308.59170           189.54250           130.59930           141.13910           234.97110           132.71440           141.14670           222.61180           125.78560           134.62710           176.36480           124.70670           123.97960           161.19200           190.86740           443.15360           174.22890           123.23270           148.35080           184.37000           150.29600           143.61160           203.93870           137.28260           147.66720           166.89900           132.30330           121.76850           179.56270           233.52790           360.22510           234.75860           136.86370           117.01400           204.15190           137.21500           127.76460           206.12310           140.83560           140.80980           160.13390           133.31550           128.06040           184.24830           257.77170           382.40140           239.36030           133.31390           121.47140           251.12120           141.26850           141.03280           220.97100           155.08240           150.31780           145.97510           144.87780           157.18600           185.13460           311.88200           306.27530           223.64340           122.43710           130.39990           207.40190           132.77270           171.61950           230.90890           153.51270           181.11260           155.05230           130.54190           146.51810           216.87740           355.46280           285.65010           215.79290           132.34180           132.94700           176.87140           129.55500           158.91520           171.58140           155.76530           161.64550           176.44120           148.31810           132.07980           171.38080           378.63240           235.68980           177.92130           138.29320           139.78580           186.13410           141.54450           165.49180           171.74950           145.35880           153.12160           167.85920           135.58360           141.26190           172.03370           424.43000           228.77740           198.26780           129.02130           138.69450           175.68450           146.21700           214.07420           173.18350           142.22550           161.41680           148.53670           143.91330           154.91120           189.17530           327.32620           251.06260           182.68280           115.36880           114.35630           170.13200           143.72400           205.99790           177.40880           142.46850           160.92570           168.28690           152.79150           149.59300           180.56090           284.23150           226.47880           154.49800           119.46900           120.55580           166.96520           140.84730           198.79520           177.00380           143.78310           143.47050           156.74430           179.71090           212.94940           187.48570           218.96270           229.43680           164.92870           133.18580           131.21580           148.48980           144.29330           176.90800           192.53110           154.91550           157.61160           144.43250           162.49090           184.22850           184.33260           220.07340           224.96610           168.71100           140.38160           115.49620           157.53400           158.03180           217.90990           154.89140           151.98100           180.05000           151.50130           135.22840           157.28040           196.50630           190.08840           226.01240           141.36190           140.57890           147.29690           136.35250           139.88300           184.12850           140.23710           172.06360           174.63070           148.65370           130.58980           149.89080           183.25350           222.04770           191.62530           149.33100           148.95480           122.76380           156.13800           140.04270           171.96640           170.59290           154.65730           186.16050           138.02070           136.81350           149.64740           236.24180           243.23260           226.15390           153.84150           136.99750           127.83000           172.04590           149.84330           172.37380           151.98170           177.86840           153.30900           151.02420           136.96830           153.55650           200.12840           212.37430           196.26500           163.37890           130.60890           123.66370           178.59600           132.15390           163.07650           142.65500           166.32180           169.84070           164.12500           148.86350           161.76620           225.70880           176.11340           166.22670           151.07600           131.66340           133.70640           169.79780           133.41410           163.14890           121.44480           145.23870           173.42200           159.66490           155.56240           169.42500           258.15570           179.16010           159.46260           150.00690           127.74970           128.50270           152.66680           130.03600           148.42650           122.59450           147.82810           175.84430           158.96100           155.98430           197.29990           197.47710           155.04550           186.93610           162.41060           119.72890           124.79060           171.68610           116.89810           166.30100           112.16640           172.29620           179.38420           149.75910           180.90790           200.97950           179.31380           138.12250           191.33500           151.79480           118.22140           118.13650           173.83130           118.41240           188.06230           106.84800           172.07440           155.73380           154.87810           187.86880           178.04070           156.08700           146.07790           163.16670           153.73390           106.42660           116.93200           200.42990           113.30320           182.24730           126.63340           173.83980           175.78160           154.36490           160.26410           188.72540           153.14040           150.65270           152.18710           148.48350           114.12530           114.45300           211.39960           105.74740           178.89610           102.13050           152.46740           176.35290           152.62420           171.16960           158.16210           150.63680           152.05010           157.87720           142.14280           122.77790           124.31910           202.21360           118.43410           149.07260           103.72720           129.84750           173.55580           169.06940           130.01990           175.45520           162.02700           132.50930           151.56510           149.32320           113.54610           125.49410           141.46540           113.87760           138.78750           103.27460           124.27910           189.63140           169.65750           145.40070           182.48570           160.25540           145.22260           149.39030           136.23370           156.80250           128.49580           158.01470            96.97033           158.28620            99.81319           122.50720           181.92680           158.06700           145.55550           179.20880           170.94760           142.83840           145.92960           189.28470           146.75220           151.67870           134.72380            80.61314           121.50830           102.67280           127.94150           153.62750           162.54270           162.45680           187.72910           185.29930           148.06730           176.31470           159.06160           137.39420           160.25110           117.83930            82.56412           129.42530           110.03160           137.29970           147.44930           120.88570           150.13170           185.57740           216.46290           152.12300           167.25370           175.93060           157.01830           135.40920           106.86450            87.02558           121.87700           115.25420           152.90480           141.79720           111.80170           150.55740           193.98910           259.89740           158.61310           156.57070           246.08270           164.27440           155.38590           114.60050            84.69194           119.82620            90.98431           159.01220           143.41510           126.65680           176.93990           188.38940           294.71080           155.32310           183.79240           218.90380           160.16120           125.46940            99.89673            89.94410           122.94770           104.73240           154.75610           145.00910           116.62680           143.89190           211.26460           249.75430           181.32890           174.79340           204.73810           152.55390           153.39830           115.25000            86.54272           120.39500           107.49310           173.91570           149.93090           131.21980           129.93880           191.45620           295.03830           155.43430           182.55000           225.27050           143.72420           161.75060           103.75470            84.89015           142.85760           132.21060           140.39710           129.14640           130.66240           112.97410           161.843